# Probe 0 (0.4 0.005 1.4)
# Probe 1 (0.9 0.005 1.4)
# Probe 2 (1.4 0.005 1.4)
# Probe 3 (1.9 0.005 1.4)
# Probe 4 (2.4 0.005 1.4)
# Probe 5 (2.9 0.005 1.4)
# Probe 6 (3.4 0.005 1.4)
# Probe 7 (3.9 0.005 1.4)
# Probe 8 (4.4 0.005 1.4)
# Probe 9 (4.9 0.005 1.4)
# Probe 10 (5.4 0.005 1.4)
# Probe 11 (5.9 0.005 1.4)
# Probe 12 (6.4 0.005 1.4)
# Probe 13 (6.9 0.005 1.4)
# Probe 14 (7.4 0.005 1.4)
# Probe 15 (7.9 0.005 1.4)
# Probe 16 (8.4 0.005 1.4)
#           Probe                 0                 1                 2                 3                 4                 5                 6                 7                 8                 9                10                11                12                13                14                15                16
#            Time
    1.1999904e-06                 1                 1                 1                 1      0.9999923816                 1                 1                 1                 1                 1                 1                 1                 1                 1                 1                 1                 1
  2.639965056e-06                 1                 1                 1      0.9999999999      0.9999832383                 1                 1                 1                 1                 1                 1                 1                 1                 1                 1                 1                 1
  4.367944597e-06                 1                 1                 1      0.9999999998      0.9999722641                 1                 1                 1                 1                 1                 1                 1                 1                 1                 1                 1                 1
  6.441505713e-06                 1                 1                 1      0.9999999995      0.9999590917                 1                 1                 1                 1                 1                 1                 1                 1                 1                 1                 1                 1
   8.92973777e-06                 1                 1                 1      0.9999999991        0.99994328                 1                 1                 1                 1                 1                 1                 1                 1                 1                 1                 1                 1
  1.191552707e-05                 1                 1                 1      0.9999999983      0.9999242991                 1                 1                 1                 1                 1                 1                 1                 1                 1                 1                 1                 1
  1.549838863e-05                 1                 1                 1      0.9999999972       0.999901512                 1                 1                 1                 1                 1                 1                 1                 1                 1                 1                 1                 1
  1.979776087e-05                 1                 1                 1      0.9999999954      0.9998741526                 1                 1                 1                 1                 1                 1                 1                 1                 1                 1                 1                 1
  2.495674128e-05                 1                 1                 1      0.9999999928       0.999841301                 1                 1                 1                 1                 1                 1                 1                 1                 1                 1                 1                 1
  3.114713435e-05                 1                 1                 1      0.9999999887      0.9998018497                 1                 1                 1                 1                 1                 1                 1                 1                 1                 1                 1                 1
  3.857523794e-05                 1                 1                 1      0.9999999827      0.9997544646                 1                 1                 1                 1                 1                 1                 1                 1                 1                 1                 1                 1
  4.748896225e-05                 1                 1                 1      0.9999999736      0.9996975363                 1                 1                 1                 1                 1                 1                 1                 1                 1                 1                 1                 1
  5.818543142e-05                 1                 1                 1      0.9999999602      0.9996291268                 1                 1                 1                 1                 1                 1                 1                 1                 1                 1                 1                 1
  7.102064463e-05                 1                 1                 1      0.9999999402      0.9995469005                 1                 1                 1                 1                 1                 1                 1                 1                 1                 1                 1                 1
  8.642131685e-05                 1                 1                 1      0.9999999106      0.9994480386                 1                 1                 1                 1                 1                 1                 1                 1                 1                 1                 1                 1
  0.0001049009832                 1                 1                 1      0.9999998662      0.9993291202                 1                 1                 1                 1                 1                 1                 1                 1                 1                 1                 1                 1
  0.0001270765827                 1                 1                 1      0.9999997994      0.9991859929                 1                 1                 1                 1                 1                 1                 1                 1                 1                 1                 1                 1
  0.0001536896689                 1                 1                 1      0.9999996976      0.9990136012                 1                 1                 1                 1                 1                 1                 1                 1                 1                 1                 1                 1
  0.0001856219625                 1                 1                 1      0.9999995405      0.9988058324      0.9999999999                 1                 1                 1                 1                 1                 1                 1                 1                 1                 1                 1
  0.0002239407148                 1                 1                 1      0.9999992933      0.9985551384      0.9999999999                 1                 1                 1                 1                 1                 1                 1                 1                 1                 1                 1
  0.0002699019884                 1                 1                 1      0.9999988963      0.9982523812      0.9999999996                 1                 1                 1                 1                 1                 1                 1                 1                 1                 1                 1
  0.0003250351347                 1                 1                 1       0.999998244       0.997886064       0.999999999                 1                 1                 1                 1                 1                 1                 1                 1                 1                 1                 1
  0.0003911802278                 1                 1                 1        0.99999715      0.9974417326      0.9999999973                 1                 1                 1                 1                 1                 1                 1                 1                 1                 1                 1
  0.0004705543394                 1                 1                 1       0.999995286      0.9969009777      0.9999999926                 1                 1                 1                 1                 1                 1                 1                 1                 1                 1                 1
  0.0005658032734                 1                 1                 1      0.9999920928      0.9962402535      0.9999999799                 1                 1                 1                 1                 1                 1                 1                 1                 1                 1                 1
  0.0006799700095                 1                 1                 1      0.9999866774      0.9954300177      0.9999999458                 1                 1                 1                 1                 1                 1                 1                 1                 1                 1                 1
  0.0008169700928                 1                 1                 1      0.9999777273       0.994430176      0.9999998591                 1                 1                 1                 1                 1                 1                 1                 1                 1                 1                 1
  0.0009814618316                 1                 1                 1       0.999963622      0.9931901018      0.9999996546                 1                 1                 1                 1                 1                 1                 1                 1                 1                 1                 1
   0.001179117227                 1                 1                 1      0.9999428786      0.9916468976      0.9999992217                 1                 1                 1                 1                 1                 1                 1                 1                 1                 1                 1
   0.001416111804                 1                 1                 1      0.9999149267      0.9897306047      0.9999984248                 1                 1                 1                 1                 1                 1                 1                 1                 1                 1                 1
   0.001666544217                 1                 1                 1      0.9998840523      0.9876412517      0.9999973169                 1                 1                 1                 1                 1                 1                 1                 1                 1                 1                 1
   0.001916976631                 1                 1      0.9999999999      0.9998509802       0.985487507      0.9999960082                 1                 1                 1                 1                 1                 1                 1                 1                 1                 1                 1
   0.002167409044                 1                 1      0.9999999999      0.9998136487      0.9832589331      0.9999945224                 1                 1                 1                 1                 1                 1                 1                 1                 1                 1                 1
   0.002417841458                 1                 1      0.9999999998       0.999771173      0.9809454929      0.9999928286                 1                 1                 1                 1                 1                 1                 1                 1                 1                 1                 1
   0.002668273871                 1                 1      0.9999999997      0.9997234662      0.9785419316      0.9999908618      0.9999999999                 1                 1                 1                 1                 1                 1                 1                 1                 1                 1
   0.002918706284                 1                 1      0.9999999995      0.9996709244      0.9760474237      0.9999885492      0.9999999999                 1                 1                 1                 1                 1                 1                 1                 1                 1                 1
   0.003169138698                 1                 1      0.9999999994      0.9996138018       0.973462303       0.999985823      0.9999999999                 1                 1                 1                 1                 1                 1                 1                 1                 1                 1
   0.003419571111                 1                 1      0.9999999992      0.9995516863      0.9707844639      0.9999826154      0.9999999998                 1                 1                 1                 1                 1                 1                 1                 1                 1                 1
   0.003670003524                 1                 1       0.999999999      0.9994837192      0.9680090316      0.9999788527      0.9999999998                 1                 1                 1                 1                 1                 1                 1                 1                 1                 1
   0.003920435938                 1                 1      0.9999999988      0.9994093075      0.9651312658      0.9999744624      0.9999999997                 1                 1                 1                 1                 1                 1                 1                 1                 1                 1
   0.004170868351                 1                 1      0.9999999984      0.9993284751      0.9621488449      0.9999693913      0.9999999996                 1                 1                 1                 1                 1                 1                 1                 1                 1                 1
   0.004421300765                 1                 1       0.999999998      0.9992416129      0.9590614189      0.9999636168      0.9999999995                 1                 1                 1                 1                 1                 1                 1                 1                 1                 1
   0.004671733178                 1                 1      0.9999999975      0.9991490043       0.955868489      0.9999571412      0.9999999994                 1                 1                 1                 1                 1                 1                 1                 1                 1                 1
   0.004922165591                 1                 1      0.9999999969      0.9990506046      0.9525680313      0.9999499703      0.9999999992                 1                 1                 1                 1                 1                 1                 1                 1                 1                 1
   0.005172598005                 1                 1       0.999999996      0.9989461837      0.9491555909      0.9999434055       0.999999999                 1                 1                 1                 1                 1                 1                 1                 1                 1                 1
   0.005423030418                 1                 1       0.999999995      0.9988354994      0.9456273582      0.9999380097      0.9999999988                 1                 1                 1                 1                 1                 1                 1                 1                 1                 1
   0.005673462831                 1                 1      0.9999999938      0.9987183239      0.9419813989      0.9999326921      0.9999999984                 1                 1                 1                 1                 1                 1                 1                 1                 1                 1
   0.005923895245                 1                 1      0.9999999923      0.9985944099      0.9382149319      0.9999270655      0.9999999981                 1                 1                 1                 1                 1                 1                 1                 1                 1                 1
   0.006174327658                 1                 1      0.9999999906      0.9984635022      0.9343247792      0.9999209841      0.9999999976                 1                 1                 1                 1                 1                 1                 1                 1                 1                 1
   0.006424760072                 1                 1      0.9999999885      0.9983253844      0.9303077545      0.9999143872      0.9999999971                 1                 1                 1                 1                 1                 1                 1                 1                 1                 1
   0.006675192485                 1                 1      0.9999999861      0.9981798884      0.9261608461       0.999907243      0.9999999965                 1                 1                 1                 1                 1                 1                 1                 1                 1                 1
   0.006925624898                 1                 1      0.9999999832      0.9980268517      0.9218810904      0.9998995265      0.9999999958                 1                 1                 1                 1                 1                 1                 1                 1                 1                 1
   0.007176057312                 1                 1      0.9999999798      0.9978660811      0.9174653338      0.9998912139       0.999999995                 1                 1                 1                 1                 1                 1                 1                 1                 1                 1
   0.007426489725                 1                 1      0.9999999758      0.9976973639      0.9129159944      0.9998770287      0.9999999941                 1                 1                 1                 1                 1                 1                 1                 1                 1                 1
   0.007676922139                 1                 1      0.9999999711      0.9975205019      0.9082260099      0.9998601551       0.999999993                 1                 1                 1                 1                 1                 1                 1                 1                 1                 1
   0.007927354552                 1                 1      0.9999999657      0.9973352652      0.9033907437       0.999841616      0.9999999917                 1                 1                 1                 1                 1                 1                 1                 1                 1                 1
   0.008177786965                 1                 1      0.9999999596      0.9971413415       0.898406189      0.9998217023      0.9999999903                 1                 1                 1                 1                 1                 1                 1                 1                 1                 1
   0.008428219379                 1                 1      0.9999999525      0.9969384166      0.8932685827      0.9998004294      0.9999999886                 1                 1                 1                 1                 1                 1                 1                 1                 1                 1
   0.008678651792                 1                 1      0.9999999444       0.996726151       0.887973932      0.9997777647      0.9999999867                 1                 1                 1                 1                 1                 1                 1                 1                 1                 1
   0.008929084205                 1                 1      0.9999999352      0.9965042391       0.882518271       0.999753665      0.9999999846                 1                 1                 1                 1                 1                 1                 1                 1                 1                 1
   0.009179516619                 1                 1      0.9999999248      0.9962723883      0.8768976842      0.9997280905       0.999999982                 1                 1                 1                 1                 1                 1                 1                 1                 1                 1
   0.009429949032                 1                 1      0.9999999131      0.9960302906      0.8711082624      0.9997009997      0.9999999792                 1                 1                 1                 1                 1                 1                 1                 1                 1                 1
   0.009680381446                 1                 1         0.9999999      0.9957776073      0.8651460266      0.9996723403      0.9999999759                 1                 1                 1                 1                 1                 1                 1                 1                 1                 1
   0.009930813859                 1                 1      0.9999998865       0.995513821      0.8590068699      0.9996420457      0.9999999721                 1                 1                 1                 1                 1                 1                 1                 1                 1                 1
    0.01018124627                 1                 1      0.9999998721      0.9952386228      0.8526865451      0.9996100353      0.9999999678                 1                 1                 1                 1                 1                 1                 1                 1                 1                 1
    0.01043167869                 1                 1      0.9999998569      0.9949516055      0.8461806675      0.9995762153      0.9999999629                 1                 1                 1                 1                 1                 1                 1                 1                 1                 1
     0.0106821111                 1                 1      0.9999998405      0.9946523049      0.8394847911      0.9995404802      0.9999999574                 1                 1                 1                 1                 1                 1                 1                 1                 1                 1
    0.01093254351                 1                 1       0.999999823        0.99434022      0.8325944656      0.9995027151      0.9999999511                 1                 1                 1                 1                 1                 1                 1                 1                 1                 1
    0.01118297593                 1                 1       0.999999804      0.9940148284       0.825505235      0.9994627991       0.999999944                 1                 1                 1                 1                 1                 1                 1                 1                 1                 1
    0.01143340834                 1                 1      0.9999997835      0.9936755986      0.8182126315      0.9994206083       0.999999936                 1                 1                 1                 1                 1                 1                 1                 1                 1                 1
    0.01168384075                 1                 1      0.9999997592      0.9933222404      0.8107121075      0.9993760171       0.999999927                 1                 1                 1                 1                 1                 1                 1                 1                 1                 1
    0.01193427317                 1                 1      0.9999997314      0.9929540055       0.802999033      0.9993288994      0.9999999168                 1                 1                 1                 1                 1                 1                 1                 1                 1                 1
    0.01218470558                 1                 1      0.9999996997      0.9925702423      0.7950688452      0.9992791348      0.9999999052                 1                 1                 1                 1                 1                 1                 1                 1                 1                 1
    0.01243513799                 1                 1      0.9999996637       0.992170275      0.7869168687      0.9992265958      0.9999998922                 1                 1                 1                 1                 1                 1                 1                 1                 1                 1
    0.01268557041                 1                 1      0.9999996237      0.9917534117       0.778538575      0.9991711583      0.9999998776                 1                 1                 1                 1                 1                 1                 1                 1                 1                 1
    0.01293600282                 1                 1      0.9999995789      0.9913189244      0.7699296576      0.9991126991      0.9999998612                 1                 1                 1                 1                 1                 1                 1                 1                 1                 1
    0.01318643523                 1                 1      0.9999995308      0.9908660398      0.7610862156      0.9990510937      0.9999998427                 1                 1                 1                 1                 1                 1                 1                 1                 1                 1
    0.01343686765                 1                 1       0.999999476      0.9903939487       0.752005157      0.9989862151       0.999999822                 1                 1                 1                 1                 1                 1                 1                 1                 1                 1
    0.01368730006                 1                 1       0.999999413      0.9899018231       0.742685131      0.9989179324      0.9999997987                 1                 1                 1                 1                 1                 1                 1                 1                 1                 1
    0.01393773247                 1                 1      0.9999993423      0.9893888561      0.7331289742      0.9988461114      0.9999997727                 1                 1                 1                 1                 1                 1                 1                 1                 1                 1
    0.01418816489                 1                 1      0.9999992633      0.9888543846      0.7233526711       0.998770623      0.9999997436                 1                 1                 1                 1                 1                 1                 1                 1                 1                 1
     0.0144385973                 1                 1      0.9999991754      0.9882986099      0.7134464115      0.9986914008       0.999999711                 1                 1                 1                 1                 1                 1                 1                 1                 1                 1
    0.01468902971                 1                 1      0.9999990777      0.9877357181      0.7050521332      0.9986092767      0.9999996746                 1                 1                 1                 1                 1                 1                 1                 1                 1                 1
    0.01493946213                 1                 1      0.9999989699      0.9872116464      0.7023105711      0.9985281112       0.999999634                 1                 1                 1                 1                 1                 1                 1                 1                 1                 1
    0.01518989454                 1                 1      0.9999988526      0.9867210603      0.7003493933      0.9984516863      0.9999995895                 1                 1                 1                 1                 1                 1                 1                 1                 1                 1
    0.01544032695                 1                 1      0.9999987279      0.9862527791      0.6984302213      0.9983812831      0.9999995417                 1                 1                 1                 1                 1                 1                 1                 1                 1                 1
    0.01569075937                 1                 1      0.9999985992      0.9857900247      0.6964872355      0.9983150704      0.9999994918                 1                 1                 1                 1                 1                 1                 1                 1                 1                 1
    0.01594119178                 1                 1      0.9999984702      0.9853206919      0.6944967369      0.9982497488       0.999999441                 1                 1                 1                 1                 1                 1                 1                 1                 1                 1
    0.01619162419                 1                 1      0.9999983441      0.9848395123      0.6924608956      0.9981824792      0.9999993908                 1                 1                 1                 1                 1                 1                 1                 1                 1                 1
    0.01644205661                 1                 1      0.9999982222      0.9843472017      0.6903960401      0.9981119208      0.9999993417                 1                 1                 1                 1                 1                 1                 1                 1                 1                 1