# Probe 0 (2.4 2.295 1.5)
#           Probe                 0
#            Time
    1.1999904e-06            293.15
  2.639965056e-06            293.15
  4.367944597e-06            293.15
  6.441505713e-06            293.15
   8.92973777e-06            293.15
  1.191552707e-05            293.15
  1.549838863e-05            293.15
  1.979776087e-05            293.15
  2.495674128e-05            293.15
  3.114713435e-05            293.15
  3.857523794e-05            293.15
  4.748896225e-05            293.15
  5.818543142e-05            293.15
  7.102064463e-05            293.15
  8.642131685e-05            293.15
  0.0001049009832            293.15
  0.0001270765827            293.15
  0.0001536896689            293.15
  0.0001856219625            293.15
  0.0002239407148            293.15
  0.0002699019884            293.15
  0.0003250351347            293.15
  0.0003911802278            293.15
  0.0004705543394            293.15
  0.0005658032734            293.15
  0.0006799700095            293.15
  0.0008169700928            293.15
  0.0009814618316            293.15
   0.001179117227            293.15
   0.001416111804       293.1500002
   0.001666544217       293.1500009
   0.001916976631       293.1500039
   0.002167409044       293.1500131
   0.002417841458        293.150038
   0.002668273871       293.1500976
   0.002918706284        293.150227
   0.003169138698       293.1504845
   0.003419571111       293.1509601
   0.003670003524       293.1517804
   0.003920435938       293.1531095
   0.004170868351       293.1551407
   0.004421300765       293.1580764
   0.004671733178        293.162094
   0.004922165591       293.1673002
   0.005172598005       293.1736739
   0.005423030418       293.1810111
   0.005673462831        293.188882
   0.005923895245       293.1966222
   0.006174327658       293.2033733
   0.006424760072       293.2081888
   0.006675192485       293.2102015
   0.006925624898       293.2088251
   0.007176057312       293.2039411
   0.007426489725       293.1960585
   0.007676922139       293.1862201
   0.007927354552       293.1759129
   0.008177786965       293.1668055
   0.008428219379       293.1604333
   0.008678651792       293.1579318
   0.008929084205        293.159853
   0.009179516619       293.1662169
   0.009429949032       293.1764981
   0.009680381446       293.1896592
   0.009930813859       293.2042952
    0.01018124627       293.2187931
    0.01043167869        293.231444
     0.0106821111       293.2405609
    0.01093254351       293.2446824
    0.01118297593       293.2428706
    0.01143340834       293.2350216
    0.01168384075       293.2220138
    0.01193427317       293.2055779
    0.01218470558       293.1880467
    0.01243513799       293.1720094
    0.01268557041       293.1599486
    0.01293600282       293.1538331
    0.01318643523        293.154819
    0.01343686765       293.1629602
    0.01368730006       293.1771578
    0.01393773247       293.1953531
    0.01418816489       293.2150412
     0.0144385973        293.233773
    0.01468902971       293.2496137
    0.01493946213       293.2614327
    0.01518989454         293.26901
    0.01544032695       293.2729355
    0.01569075937       293.2742639
    0.01594119178        293.274176
    0.01619162419       293.2735894
    0.01644205661        293.272934
    0.01669248902       293.2721484
    0.01694292143       293.2708088
    0.01719335385       293.2683158
    0.01744378626       293.2641403
    0.01769421867       293.2580064
    0.01794465109       293.2500707
     0.0181950835       293.2410027
    0.01844551591       293.2319051
    0.01869594833       293.2240996
    0.01894638074       293.2188462
    0.01919681315       293.2170696
    0.01944724557       293.2191551
    0.01969767798       293.2248291
    0.01994811039       293.2332216
    0.02019854281       293.2430301
    0.02044897522       293.2528202
    0.02069940763       293.2614506
    0.02094984005       293.2682559
    0.02120027246       293.2731309
    0.02145070487       293.2764656
    0.02170113729       293.2789601
     0.0219515697       293.2813632
    0.02220200211       293.2842271
    0.02245243453       293.2875574
    0.02270286694       293.2908308
    0.02295329935       293.2932029
    0.02320373177       293.2937658
    0.02345416418       293.2918581
    0.02370459659        293.287292
    0.02395502901       293.2804447
    0.02420546142       293.2722123
    0.02445589384       293.2638884
    0.02470632625       293.2569658
    0.02495675866       293.2528116
    0.02520719108       293.2523254
    0.02545762349       293.2558274
     0.0257080559       293.2630365
    0.02595848832       293.2732014
    0.02620892073        293.285257
    0.02645935314       293.2979687
    0.02670978556       293.3100712
    0.02696021797       293.3204507
    0.02721065038        293.328308
     0.0274610828       293.3331853
    0.02771151521       293.3349302
    0.02796194762       293.3335766
    0.02821238004        293.329283
    0.02846281245       293.3222441
    0.02871324486       293.3127054
    0.02896367728       293.3010347
    0.02921410969       293.2877918
     0.0294645421       293.2737753
    0.02971497452       293.2599863
    0.02996540693       293.2475724
    0.03021583934       293.2377066
    0.03046627176       293.2314436
    0.03071670417       293.2296412
    0.03096713658       293.2328999
      0.031217569       293.2414309
    0.03146800141       293.2550262
    0.03171843382       293.2729668
    0.03196886624       293.2940188
    0.03221929865       293.3165775
    0.03246973106       293.3388304
    0.03272016348        293.358997
    0.03297059589       293.3754732
     0.0332210283       293.3869537
    0.03347146072       293.3926004
    0.03372189313       293.3921979
    0.03397232554       293.3862219
    0.03422275796       293.3758263
    0.03447319037       293.3626435
    0.03472362278        293.348411
     0.0349740552       293.3346294
    0.03522448761       293.3224241
    0.03547492002       293.3125209
    0.03572535244        293.305204
    0.03597578485       293.3002919
    0.03622621726       293.2972387
    0.03647664968       293.2952857
    0.03672708209       293.2937595
     0.0369775145       293.2922783
    0.03722794692       293.2908245
    0.03747837933       293.2897064
    0.03772881174       293.2894354
    0.03797924416       293.2905642
    0.03822967657       293.2935223
    0.03848010898       293.2985221
     0.0387305414       293.3055169
    0.03898097381       293.3141878
    0.03923140622       293.3239843
    0.03948183864       293.3342343
    0.03973227105       293.3442784
    0.03998270346       293.3535384
    0.04023313588       293.3615604
    0.04048356829       293.3679734
     0.0407340007       293.3724303
    0.04098443312       293.3746341
    0.04123486553       293.3743546
    0.04148529795       293.3714719
    0.04173573036       293.3660463
    0.04198616277       293.3583831
    0.04223659519       293.3490625
     0.0424870276       293.3389603
    0.04273746001       293.3291689
    0.04298789243       293.3208423
    0.04323832484       293.3150489
    0.04348875725       293.3126417
    0.04373918967       293.3141556
    0.04398962208       293.3197109
    0.04424005449       293.3289553
    0.04449048691       293.3410851
    0.04474091932       293.3549275
    0.04499135173       293.3690687
    0.04524178415       293.3820508
    0.04549221656       293.3925315
    0.04574264897       293.3994671
    0.04599308139       293.4022703
     0.0462435138       293.4008869
    0.04649394621       293.3957306
    0.04674437863       293.3875925
    0.04699481104       293.3774992
    0.04724524345       293.3665366
    0.04749567587        293.355702
    0.04774610828       293.3458892
    0.04799654069       293.3378191
    0.04824697311       293.3319719
    0.04849740552       293.3285851
    0.04874783793       293.3277063
    0.04899827035        293.329263
    0.04924870276       293.3330254
    0.04949913517       293.3387527
    0.04974956759       293.3462233
             0.05       293.3551642
          0.05025       293.3652428
           0.0505       293.3761563
          0.05075       293.3875383
            0.051       293.3989194
          0.05125       293.4097242
           0.0515       293.4193121
          0.05175       293.4270297
            0.052       293.4322642
          0.05225       293.4345005
           0.0525       293.4333783
          0.05275       293.4287541
            0.053       293.4207402
          0.05325       293.4097621
           0.0535        293.396577
          0.05375       293.3822349
            0.054       293.3679722
          0.05425        293.355067
           0.0545       293.3446994
          0.05475       293.3378436
            0.055       293.3351889
          0.05525       293.3370795
           0.0555       293.3434438
          0.05575       293.3538459
            0.056       293.3675506
          0.05625       293.3835692
           0.0565        293.400713
          0.05675       293.4176816
            0.057        293.433213
          0.05725       293.4462648
           0.0575       293.4561434
          0.05775       293.4625427
            0.058       293.4655104
          0.05825        293.465374
           0.0585       293.4626483
          0.05875       293.4579481
            0.059       293.4519189
          0.05925       293.4451667
           0.0595       293.4381872
          0.05975       293.4314133
             0.06       293.4251958
          0.06025        293.419813
           0.0605        293.415496
          0.06075       293.4124307
            0.061        293.410737
          0.06125       293.4104341
           0.0615       293.4114088
          0.06175       293.4134558
            0.062       293.4163233
          0.06225        293.419784
           0.0625       293.4236864
          0.06275       293.4279771
            0.063       293.4326862
          0.06325       293.4378753
           0.0635       293.4435638
          0.06375       293.4496587
            0.064       293.4559174
          0.06425       293.4619502
           0.0645       293.4672622
          0.06475        293.471342
            0.065       293.4737631
          0.06525       293.4743013
           0.0655       293.4730258
          0.06575       293.4703352
            0.066       293.4669137
          0.06625       293.4636086
           0.0665       293.4612595
          0.06675       293.4605331
            0.067       293.4618135
          0.06725       293.4651701
           0.0675       293.4704018
          0.06775       293.4771349
            0.068       293.4849266
          0.06825        293.493341
           0.0685        293.501983
          0.06875        293.510493
            0.069       293.5185075
          0.06925       293.5256148
           0.0695       293.5313557
          0.06975       293.5352823
             0.07       293.5370543
          0.07025       293.5365198
           0.0705       293.5337659
          0.07075        293.529143
            0.071       293.5232355
          0.07125       293.5167802
           0.0715       293.5105543
          0.07175       293.5052249
            0.072       293.5012619
          0.07225       293.4989117
           0.0725       293.4982322
          0.07275       293.4991615
    0.07299772727       293.5015652
    0.07324545455       293.5053492
    0.07349090909       293.5103923
    0.07373636364       293.5166749
    0.07397954545       293.5240693
    0.07422272727       293.5325255
    0.07446363636       293.5417721
    0.07470454545       293.5516187
    0.07494318182       293.5616314
     0.0751795669       293.5714187
    0.07541372192       293.5805694
    0.07564787695       293.5887547
    0.07587980194        293.595527
    0.07610951811       293.6006104
    0.07633923428       293.6038449
    0.07656674164       293.6050993
      0.076794249        293.604408
    0.07701954756       293.6019428
    0.07724484611       293.5979857
    0.07746793586       293.5929965
     0.0776910256       293.5874349
    0.07791190653       293.5819004
    0.07813278747       293.5768729
    0.07835145959        293.572871
    0.07857013172       293.5702235
    0.07878880384       293.5691879
    0.07900524462       293.5698688
     0.0792216854       293.5722472
    0.07943812618       293.5762215
    0.07965231236       293.5815527
    0.07986649855       293.5880537
    0.08007843014       293.5954024
    0.08029036174       293.6034288
    0.08050003874       293.6118294
    0.08070748514       293.6204105
    0.08091493153       293.6290928
    0.08112014732       293.6376226
    0.08132315649       293.6458445
    0.08152616566        293.653685
    0.08172696821        293.660898
    0.08192777075       293.6674003
    0.08212636668       293.6729709
     0.0823249626       293.6775362
    0.08252135191       293.6809366
    0.08271774121       293.6831316
     0.0829119239       293.6840649
    0.08310610658       293.6837698
    0.08329808264       293.6823335
     0.0834900587       293.6798851
    0.08367982814       293.6766589
    0.08386959758       293.6728808
    0.08405936702         293.66885
    0.08424690388       293.6649449
    0.08443444074       293.6614556
     0.0846219776         293.65871
    0.08480725498       293.6570128
    0.08499253236       293.6565465
    0.08517780973        293.657462
    0.08536308711       293.6598039
    0.08554604852       293.6634647
    0.08572900993       293.6683299
    0.08591197135       293.6741929
    0.08609493276       293.6807963
    0.08627551805       293.6877627
    0.08645610333        293.694882
    0.08663668862       293.7018657
    0.08681727391        293.708458
    0.08699541886       293.7143816
    0.08717356381       293.7195865
    0.08735170875        293.723978
    0.08752737947       293.7274653
    0.08770305018       293.7301134
    0.08787872089       293.7319653
     0.0880543916       293.7330814
    0.08822751636       293.7335447
    0.08840064112       293.7334581
    0.08857376588       293.7329085
    0.08874430669       293.7320164
    0.08891484749       293.7309038
     0.0890853883       293.7297209
    0.08925592911        293.728628
    0.08942380522       293.7277958
    0.08959168133       293.7273518
    0.08975955743       293.7274299
    0.08992743354       293.7281467
    0.09009255758       293.7295676
    0.09025768162       293.7317628
    0.09042280566       293.7347653
     0.0905879297       293.7385739
    0.09075020678       293.7430768
    0.09091248385        293.748292
    0.09107476092       293.7541766
      0.091237038       293.7606903
    0.09139636458       293.7676574
    0.09155569116       293.7751363
    0.09171501774       293.7830432
    0.09187434433       293.7912531
    0.09203367091       293.7995935
    0.09219299749        293.807847
    0.09234913754       293.8156141
    0.09250527759       293.8228105
    0.09266141764       293.8291937
    0.09281755769       293.8345526
    0.09297369774       293.8387265
    0.09312983779        293.841625
    0.09328250806       293.8432151
    0.09343517833        293.843636
     0.0935878486       293.8430152
    0.09374051888       293.8415358
    0.09389318915       293.8394179
    0.09404585942       293.8368968
    0.09419852969        293.834199
    0.09434728534       293.8315853
    0.09449604099       293.8291241
    0.09464479664       293.8269036
    0.09479355229       293.8249678
    0.09494230793       293.8233275
    0.09509106358       293.8219763
    0.09523544407       293.8209349
    0.09537982455       293.8201604
    0.09552420503       293.8196665
    0.09566858552       293.8194813
      0.095812966       293.8196444
    0.09595734648       293.8202022
    0.09610172696       293.8212023
    0.09624610745        293.822688
    0.09639048793       293.8246952
    0.09653486841       293.8272423
    0.09667347368       293.8302119
    0.09681207894        293.833692
     0.0969506842       293.8376551
    0.09708928947        293.842044
    0.09722789473       293.8467722
    0.09736649999       293.8517196
    0.09750510526       293.8567455
    0.09764371052       293.8616982
    0.09778231578       293.8664302
    0.09792092105       293.8708228
    0.09805952631       293.8748033
    0.09819813157       293.8783561
    0.09833673684       293.8815244
     0.0984753421       293.8844046
    0.09861394736        293.887137
    0.09875255263        293.889887
    0.09889115789       293.8928152
    0.09902976316       293.8960546
    0.09916836842       293.8996838
    0.09930697368       293.9037101
    0.09944557895       293.9080606
    0.09958418421       293.9125848
    0.09972278947       293.9170721
    0.09986139474       293.9212796
              0.1       293.9249663
     0.1001319261        293.927806
     0.1002635042       293.9298549
      0.100394735       293.9310509
     0.1005256196       293.9313965
     0.1006561589       293.9309508
     0.1007863537       293.9298191
      0.100916205       293.9281379
     0.1010457137       293.9260575
     0.1011748807       293.9237305
     0.1013040477       293.9212948
     0.1014328729       293.9188882
     0.1015613574        293.916626
      0.101689502        293.914606
     0.1018173075       293.9129161
      0.101944775       293.9116429
     0.1020719052       293.9108789
     0.1021986991       293.9107231
     0.1023251576       293.9112775
     0.1024512815        293.912637
     0.1025770717       293.9148752
     0.1027025292       293.9180308
     0.1028276548       293.9220918
     0.1029524494       293.9269858
     0.1030769138       293.9325769
     0.1032010489       293.9386726
     0.1033248557       293.9450388
     0.1034480091       293.9514028
     0.1035708376        293.957527
      0.103693342       293.9631806
     0.1038155231       293.9681797
     0.1039373819       293.9724006
     0.1040589191       293.9758117
     0.1041801357       293.9784566
     0.1043010325       293.9804468
     0.1044216102       293.9819448
      0.104542188       293.9831433
     0.1046624467       293.9842313
     0.1047823873       293.9853816
     0.1049020106       293.9867276
     0.1050213175       293.9883522
     0.1051403087       293.9902828
     0.1052589852       293.9924926
     0.1053773476       293.9949073
      0.105495397       293.9974188
      0.105613134       293.9999012
     0.1057305596        294.002228
     0.1058476745       294.0042863
     0.1059644796       294.0059877
     0.1060809757       294.0072744
     0.1061971636       294.0081243
     0.1063133515       294.0085526
     0.1064292312       294.0086066
     0.1065448035        294.008365
     0.1066600693       294.0079269
     0.1067750293       294.0074022
     0.1068896844       294.0069039
     0.1070040354       294.0065406
      0.107118083       294.0064084
     0.1072318282       294.0065846
     0.1073452716       294.0071238
     0.1074584141       294.0080564
     0.1075715566       294.0093955
     0.1076843982       294.0111294
     0.1077969397       294.0132328
     0.1079091819       294.0156692
     0.1080214241       294.0184034
      0.108133367       294.0213851
     0.1082450113       294.0245719
      0.108356358       294.0279276
     0.1084674077       294.0314239
     0.1085784574       294.0350516
     0.1086892102       294.0387912
     0.1087996668       294.0426353
     0.1089098281       294.0465719
     0.1090196949       294.0505735
     0.1091292679       294.0545883
     0.1092388409       294.0585436
     0.1093481202        294.062315
     0.1094571064       294.0657667
     0.1095660927       294.0687618
      0.109674786       294.0711548
     0.1097831871       294.0728359
     0.1098915882       294.0737361
     0.1099996972       294.0738275
     0.1101075147       294.0731395
     0.1102150416       294.0717523
     0.1103222787       294.0697914
     0.1104292267       294.0674172
     0.1105358865       294.0648105
     0.1106425463       294.0621476
     0.1107489178        294.059603
     0.1108550018       294.0573143
     0.1109607991       294.0553809
     0.1110665964       294.0538393
     0.1111721069       294.0526856
     0.1112776175       294.0518678
     0.1113828414        294.051313
     0.1114880652       294.0509355
     0.1115930024       294.0506521
     0.1116976536       294.0503888
     0.1118023048       294.0500932
     0.1119066701       294.0497451
     0.1120110354        294.049357
     0.1121151148       294.0489733
     0.1122191941       294.0486576
     0.1123229875       294.0484851
     0.1124264958        294.048527
     0.1125300041       294.0488442
     0.1126332272       294.0494775
     0.1127364504       294.0504499
     0.1128393883       294.0517612
      0.112942042       294.0533993
     0.1130446956       294.0553535
     0.1131470648       294.0576075
     0.1132491505       294.0601609
     0.1133512362        294.063039
     0.1134530384       294.0662709
     0.1135548405       294.0699199
      0.113656359       294.0740412
     0.1137578776       294.0787139
     0.1138591126       294.0839836
     0.1139603475       294.0899039
     0.1140612989       294.0964666
     0.1141619676       294.1036381
     0.1142626362       294.1113645
     0.1143630221       294.1195068
     0.1144631259       294.1279083
     0.1145629486        294.136384
     0.1146627713       294.1447565
     0.1147623128       294.1527991
     0.1148615739       294.1603229
      0.114960835       294.1671841
     0.1150598156       294.1732332
     0.1151585167       294.1783834
     0.1152572178       294.1825978
     0.1153556393       294.1858501
     0.1154540608       294.1881683
     0.1155522026       294.1895931
     0.1156500657       294.1901988
     0.1157479288       294.1900742
      0.115845513       294.1893158
     0.1159428193       294.1880222
     0.1160398483       294.1862844
     0.1161366008       294.1841792
     0.1162333534       294.1817576
     0.1163298295       294.1790636
       0.11642603       294.1761162
     0.1165222305       294.1729085
     0.1166181553       294.1694425
     0.1167140802       294.1657005
     0.1168097294       294.1616939
     0.1169053786       294.1574306
     0.1170007521       294.1529686
     0.1170961257       294.1483702
     0.1171912236       294.1437507
     0.1172863215       294.1392204
     0.1173811437       294.1349275
     0.1174756911       294.1310086
     0.1175702386       294.1275831
     0.1176645111       294.1247824
     0.1177585096       294.1226884
     0.1178525081       294.1213564
     0.1179462326       294.1208197
     0.1180399571       294.1210684
     0.1181334075        294.122053
     0.1182265847       294.1236828
     0.1183197618       294.1258414
      0.118412939       294.1283863
     0.1185058421       294.1311561
     0.1185987452       294.1340105
     0.1186913743        294.136813
     0.1187840034        294.139474
     0.1188766325       294.1419312
     0.1189689867       294.1441533
     0.1190613409       294.1461588
     0.1191534202       294.1479868
     0.1192454996       294.1497159
      0.119337304       294.1514342
     0.1194291085       294.1532506
     0.1195206381       294.1552635
     0.1196121677       294.1575732
     0.1197034225       294.1602494
     0.1197946772       294.1633531
     0.1198856571        294.166899
      0.119976637       294.1708912
      0.120067342       294.1752808
     0.1201580471        294.180017
     0.1202484772       294.1850002
     0.1203389074       294.1901463
     0.1204290627       294.1953363
      0.120519218       294.2004862
     0.1206090984       294.2054926
     0.1206989788       294.2103001
     0.1207885844       294.2148436
       0.12087819       294.2191057
     0.1209675207       294.2230574
     0.1210568514        294.226703
     0.1211459072       294.2300248
     0.1212349631       294.2330223
     0.1213237441       294.2356693
      0.121412525        294.237952
     0.1215010312       294.2398407
     0.1215895373       294.2413192
     0.1216777685       294.2423626
     0.1217659998       294.2429532
     0.1218539562       294.2430707
     0.1219419125       294.2426872
     0.1220295941        294.241773
     0.1221172756       294.2402968
     0.1222046822       294.2382445
     0.1222920889       294.2356093
     0.1223792207       294.2324239
     0.1224663525       294.2287317
     0.1225534843       294.2246122
     0.1226403404       294.2201837
     0.1227271964       294.2155536
     0.1228140525       294.2108498
     0.1229006319       294.2062145
     0.1229872114       294.2017523
     0.1230737908       294.1975778
     0.1231603703       294.1937929
     0.1232469497       294.1904812
     0.1233332499       294.1877135
     0.1234195501       294.1855197
     0.1235058502       294.1839223
     0.1235921504       294.1829251
     0.1236781694       294.1825119
     0.1237641885       294.1826409
     0.1238502075        294.183256
     0.1239362266       294.1842882
     0.1240219627       294.1856576
     0.1241076988       294.1872926
     0.1241934349       294.1891246
      0.124279171       294.1910925
     0.1243646222       294.1931374
     0.1244500735       294.1952213
     0.1245355248       294.1973076
      0.124620976       294.1993675
     0.1247061405       294.2013747
      0.124791305       294.2033308
     0.1248764696       294.2052475
     0.1249613463       294.2071502
     0.1250462231        294.209099
     0.1251308122        294.211161
     0.1252154013       294.2134313
     0.1252999904       294.2160058
     0.1253842907        294.218966
     0.1254685911       294.2223963
     0.1255526028       294.2263327
     0.1256366145       294.2308041
     0.1257206261       294.2357935
     0.1258046378       294.2412502
     0.1258883588       294.2470729
     0.1259720798       294.2531761
     0.1260558007       294.2593762
     0.1261395217       294.2655813
       0.12622295       294.2716422
     0.1263063782       294.2774393
     0.1263898065       294.2828316
     0.1264732347       294.2876852
     0.1265563681       294.2918683
     0.1266395016       294.2953051
     0.1267223402       294.2979227
     0.1268051789       294.2997035
     0.1268880175       294.3006507
     0.1269705603       294.3008017
     0.1270531031       294.3002266
     0.1271353501       294.2990193
      0.127217597       294.2972845
     0.1272995481       294.2951468
     0.1273814992       294.2927199
     0.1274634503       294.2901204
     0.1275451044       294.2874659
     0.1276267586       294.2848424
     0.1277084128       294.2823304
     0.1277900669       294.2799947
      0.127871422       294.2778917
     0.1279527771       294.2760447
     0.1280341321       294.2744689
      0.128115187       294.2731651
     0.1281962419       294.2721059
     0.1282772967       294.2712518
     0.1283580503       294.2705502
     0.1284388038       294.2699329
      0.128519256       294.2693359
     0.1285997083       294.2686974
     0.1286801605       294.2679748
     0.1287603103       294.2671533
       0.12884046       294.2662403
     0.1289206098       294.2652725
      0.129000456        294.264311
     0.1290803022       294.2634203
     0.1291601483       294.2626673
     0.1292396897       294.2621091
     0.1293192312       294.2617754
     0.1293987726       294.2616724
     0.1294780081        294.261778
     0.1295572436       294.2620431
     0.1296364791       294.2624012
     0.1297157145       294.2627712
       0.12979495       294.2630676
      0.129873876       294.2632077
      0.129952802       294.2631194
      0.130031728       294.2627462
     0.1301106539        294.262053
     0.1301895799        294.261031
     0.1302685059       294.2596986
     0.1303471174       294.2581087
      0.130425729       294.2563566
     0.1305043405       294.2545217
      0.130582952       294.2527151
     0.1306615635       294.2510633
     0.1307398568       294.2497033
     0.1308181501       294.2487552
     0.1308964433       294.2483348
     0.1309747366       294.2485387
      0.131052709       294.2494315
     0.1311306814       294.2510487
     0.1312086538       294.2533941
     0.1312866262       294.2564386
     0.1313645986       294.2601266
     0.1314422461       294.2643606
     0.1315198936        294.269059
     0.1315975411       294.2741153
     0.1316751886       294.2794159
     0.1317528361       294.2848504
     0.1318304836       294.2903221
     0.1319081311       294.2957575
     0.1319854468       294.3010887
     0.1320627625       294.3063383
     0.1321400781       294.3114533
     0.1322173938       294.3164047
     0.1322947095       294.3211992
      0.132371689       294.3258381
     0.1324486685       294.3303507
     0.1325256481        294.334715
     0.1326026276       294.3388759
     0.1326796071         294.34275
      0.132756246       294.3462467
     0.1328328849       294.3493044
     0.1329095238       294.3518294
     0.1329861627        294.353716
      0.133062458       294.3548542
     0.1331387532       294.3551625
     0.1332150484       294.3545742
     0.1332913437       294.3530529
     0.1333676389       294.3505943
     0.1334435858       294.3472406
     0.1335195326       294.3430345
     0.1335954795       294.3380518
     0.1336714263        294.332392
     0.1337473732       294.3261816
       0.13382332       294.3195745
      0.133898912        294.312793
      0.133974504       294.3059719
     0.1340500959       294.2992835
     0.1341256879       294.2929057
     0.1342012799        294.287007
     0.1342768718       294.2817305
     0.1343521021       294.2772077
     0.1344273324       294.2734904
     0.1345025626       294.2706284
     0.1345777929       294.2686442