# Probe 0 (2.4 0 1.5)
#           Probe                 0
#            Time
    1.1999904e-06      0.9999683232
  2.639965056e-06       0.999930307
  4.367944597e-06      0.9998846792
  6.441505713e-06      0.9998299138
   8.92973777e-06      0.9997641782
  1.191552707e-05      0.9996852715
  1.549838863e-05      0.9995905475
  1.979776087e-05      0.9994768255
  2.495674128e-05      0.9993402871
  3.114713435e-05      0.9991763373
  3.857523794e-05      0.9989794432
  4.748896225e-05      0.9987429342
  5.818543142e-05       0.998458783
  7.102064463e-05       0.998117326
  8.642131685e-05      0.9977069136
  0.0001049009832       0.997213432
  0.0001270765827       0.996619789
  0.0001536896689      0.9959052431
  0.0001856219625      0.9950448394
  0.0002239407148      0.9940079771
  0.0002699019884      0.9927580164
  0.0003250351347      0.9912495511
  0.0003911802278      0.9894267328
  0.0004705543394      0.9872204858
  0.0005658032734      0.9845456006
  0.0006799700095      0.9812993437
  0.0008169700928      0.9773441047
  0.0009814618316      0.9725042309
   0.001179117227      0.9665478374
   0.001416111804      0.9591910193
   0.001666544217      0.9511682307
   0.001916976631      0.9429213534
   0.002167409044      0.9344547504
   0.002417841458      0.9257461997
   0.002668273871      0.9167744207
   0.002918706284      0.9075243244
   0.003169138698      0.8979882674
   0.003419571111      0.8881637494
   0.003670003524       0.878047266
   0.003920435938      0.8676300804
   0.004170868351      0.8569000811
   0.004421300765      0.8458459018
   0.004671733178      0.8344588798
   0.004922165591      0.8227316728
   0.005172598005       0.810656043
   0.005423030418      0.7982223699
   0.005673462831      0.7854206861
   0.005923895245      0.7722412019
   0.006174327658      0.7586741676
   0.006424760072       0.744709602
   0.006675192485      0.7303372173
   0.006925624898      0.7155466045
   0.007176057312      0.7003274944
   0.007426489725      0.6846698204
   0.007676922139      0.6685631786
   0.007927354552      0.6519970409
   0.008177786965      0.6349610008
   0.008428219379      0.6174449314
   0.008678651792      0.5994384284
   0.008929084205      0.5809309659
   0.009179516619      0.5619118875
   0.009429949032      0.5423705716
   0.009680381446      0.5222964195
   0.009930813859      0.5016787984
    0.01018124627      0.4805069853
    0.01043167869      0.4587701727
     0.0106821111      0.4364575143
    0.01093254351      0.4135582392
    0.01118297593       0.390061658
    0.01143340834       0.365957367
    0.01168384075      0.3412351934
    0.01193427317      0.3158852556
    0.01218470558      0.2898982803
    0.01243513799      0.2632652028
    0.01268557041       0.235977977
    0.01293600282      0.2080296602
    0.01318643523      0.1794154615
    0.01343686765      0.1501341909
    0.01368730006      0.1201918327
    0.01393773247     0.08961115118
    0.01418816489     0.05846696433
     0.0144385973     0.02712697736
    0.01468902971    0.002166137718
    0.01493946213  -0.0001976307419
    0.01518989454   5.049096879e-05
    0.01544032695   0.0001579892857
    0.01569075937   0.0001628839447
    0.01594119178   0.0001365109976
    0.01619162419   0.0001135857243
    0.01644205661   0.0001060462576
    0.01669248902   0.0001069801069
    0.01694292143   0.0001107177982
    0.01719335385   0.0001138500895
    0.01744378626   0.0001136939557
    0.01769421867   0.0001114325561
    0.01794465109   0.0001091288881
     0.0181950835   0.0001075181992
    0.01844551591   0.0001060146668
    0.01869594833   0.0001040117914
    0.01894638074    0.000101668839
    0.01919681315   9.943611925e-05
    0.01944724557    9.74642017e-05
    0.01969767798   9.547908061e-05
    0.01994811039    9.32836722e-05
    0.02019854281    9.10050412e-05
    0.02044897522   8.893550852e-05
    0.02069940763   8.725212312e-05
    0.02094984005   8.591571893e-05
    0.02120027246   8.478172801e-05
    0.02145070487    8.38170191e-05
    0.02170113729   8.313953796e-05
     0.0219515697   8.283414491e-05
    0.02220200211   8.276314145e-05
    0.02245243453   8.261341895e-05
    0.02270286694    8.21018248e-05
    0.02295329935   8.114376522e-05
    0.02320373177   7.983773122e-05
    0.02345416418   7.832012739e-05
    0.02370459659   7.662591388e-05
    0.02395502901   7.469960289e-05
    0.02420546142   7.251851437e-05
    0.02445589384   7.015844986e-05
    0.02470632625   6.778390876e-05
    0.02495675866   6.556822247e-05
    0.02520719108   6.360973823e-05
    0.02545762349    6.19005504e-05
     0.0257080559   6.036831567e-05
    0.02595848832   5.893213982e-05
    0.02620892073   5.758358266e-05
    0.02645935314   5.635750823e-05
    0.02670978556   5.520980252e-05
    0.02696021797   5.408340097e-05
    0.02721065038   5.303100914e-05
     0.0274610828   5.231716775e-05
    0.02771151521   5.154329863e-05
    0.02796194762    5.07997393e-05
    0.02821238004   4.996763598e-05
    0.02846281245   4.906350723e-05
    0.02871324486   4.804212939e-05
    0.02896367728   4.693701516e-05
    0.02921410969   4.580813761e-05
     0.0294645421   4.470797753e-05
    0.02971497452   4.365995131e-05
    0.02996540693   4.267034311e-05
    0.03021583934   4.174347976e-05
    0.03046627176   3.757654706e-05
    0.03071670417   3.529639664e-05
    0.03096713658   3.674391117e-05
      0.031217569   3.197352174e-05
    0.03146800141   3.150195515e-05
    0.03171843382   3.037046599e-05
    0.03196886624   3.601968396e-05
    0.03221929865   3.600513157e-05
    0.03246973106   2.856101519e-05
    0.03272016348    2.69226076e-05
    0.03297059589    2.50712733e-05
     0.0332210283   3.220450593e-05
    0.03347146072    3.26328059e-05
    0.03372189313   3.361905283e-05
    0.03397232554   3.388196286e-05
    0.03422275796   3.302268712e-05
    0.03447319037   2.873206007e-05
    0.03472362278   3.077279172e-05
     0.0349740552   2.075885808e-05
    0.03522448761   1.988337568e-05
    0.03547492002   1.966414675e-05
    0.03572535244    1.92399606e-05
    0.03597578485   2.462588405e-05
    0.03622621726   2.265089949e-05
    0.03647664968   2.695955686e-05
    0.03672708209   2.686767958e-05
     0.0369775145   1.912647383e-05
    0.03722794692    2.37052296e-05
    0.03747837933    2.57810104e-05
    0.03772881174    2.32779479e-05
    0.03797924416   2.342354843e-05
    0.03822967657   0.0005216877108
    0.03848010898    0.001110140881
     0.0387305414    0.001740987493
    0.03898097381    0.002515844366
    0.03923140622     0.00322381882
    0.03948183864     0.00390710245
    0.03973227105    0.004633418234
    0.03998270346    0.005299139822
    0.04023313588    0.005944345819
    0.04048356829    0.006577881084
     0.0407340007    0.007309191371
    0.04098443312    0.008086166196
    0.04123486553    0.008764303132
    0.04148529795    0.009475323534
    0.04173573036     0.01009221218
    0.04198616277     0.01064991299
    0.04223659519     0.01116602421
     0.0424870276     0.01165923562
    0.04273746001     0.01214300519
    0.04298789243     0.01262336474
    0.04323832484     0.01310225847
    0.04348875725     0.01358435103
    0.04373918967      0.0140738608
    0.04398962208     0.01457289577
    0.04424005449     0.01508153216
    0.04449048691     0.01565626957
    0.04474091932     0.01620014128
    0.04499135173     0.01679449561
    0.04524178415     0.01735129648
    0.04549221656     0.01794663331
    0.04574264897     0.01849966997
    0.04599308139     0.01908726122
     0.0462435138     0.01968553929
    0.04649394621     0.02028572964
    0.04674437863     0.02088243489
    0.04699481104     0.02147050735
    0.04724524345     0.02204390838
    0.04749567587     0.02259953673
    0.04774610828     0.02313935319
    0.04799654069     0.02366286597
    0.04824697311     0.02417375142
    0.04849740552     0.02467034583
    0.04874783793     0.02515745884
    0.04899827035     0.02563449233
    0.04924870276     0.02610442036
    0.04949913517     0.02656923987
    0.04974956759     0.02702876418
             0.05     0.02748542822
          0.05025        0.02793692
           0.0505     0.02838019419
          0.05075     0.02881360729
            0.051     0.02923685012
          0.05125      0.0296520226
           0.0515     0.03006026502
          0.05175     0.03046146037
            0.052     0.03085104499
          0.05225     0.03122930678
           0.0525     0.03160349124
          0.05275     0.03198567187
            0.053     0.03237202909
          0.05325     0.03276248715
           0.0535     0.03315068597
          0.05375     0.03352523773
            0.054     0.03387962674
          0.05425     0.03422381191
           0.0545     0.03456681167
          0.05475     0.03491462423
            0.055     0.03526595808
          0.05525     0.03561381814
           0.0555      0.0359535697
          0.05575     0.03628272554
            0.056     0.03660417199
          0.05625     0.03692375387
           0.0565     0.03724609039
          0.05675     0.03757136221
            0.057     0.03789378535
          0.05725     0.03821187244
           0.0575     0.03852558272
          0.05775     0.03883299717
            0.058     0.03913112625
          0.05825     0.03942062211
           0.0585     0.03970552128
          0.05875     0.03998957893
            0.059     0.04027353329
          0.05925     0.04055569405
           0.0595     0.04083401563
          0.05975      0.0411084264
             0.06     0.04137837921
          0.06025     0.04164445558
           0.0605     0.04190667372
          0.06075     0.04216539106
            0.061     0.04242038913
          0.06125     0.04267146105
           0.0615     0.04291902133
          0.06175     0.04316357418
            0.062     0.04340550069
          0.06225     0.04364428255
           0.0625     0.04387932383
          0.06275     0.04411051619
            0.063     0.04433837401
          0.06325     0.04456327971
           0.0635     0.04478492293
          0.06375     0.04500254784
            0.064     0.04521538977
          0.06425     0.04542404595
           0.0645     0.04563030824
          0.06475     0.04583596432
            0.065      0.0460413716
          0.06525     0.04624532248
           0.0655     0.04644609563
          0.06575     0.04664279642
            0.066     0.04683596867
          0.06625      0.0470269357
           0.0665     0.04721656904
          0.06675     0.04740496969
            0.067        0.04759218
          0.06725     0.04777840181
    0.06749810606     0.04796245137
    0.06774433253     0.04814445308
    0.06798869365     0.04832442389
    0.06823305476     0.04850371399
    0.06847555053     0.04868017715
    0.06871437212     0.04885176838
    0.06895138445     0.04901962657
    0.06918660123      0.0491842577
    0.06942003607     0.04934618217
    0.06965170247     0.04950543495
    0.06988161381      0.0496618695
     0.0701097834     0.04981556087
    0.07033622444     0.04996718241
    0.07056095001      0.0501173619
    0.07078397312     0.05026615645
    0.07100530665     0.05041367593
    0.07122496342     0.05055978888
    0.07144462019     0.05070566967
    0.07166260019     0.05085043685
    0.07187891622     0.05099453442
    0.07209358098      0.0511379981
    0.07230824574     0.05128189336
    0.07252125923     0.05142523022
    0.07273427273     0.05156949705
    0.07294563496     0.05171360409
    0.07315535872     0.05185692365
    0.07336508248     0.05199935099
    0.07357316777     0.05213863533
     0.0737796274       0.052274554
    0.07398608702     0.05240894026
    0.07419092098     0.05254161241
    0.07439414208     0.05267277687
    0.07459736317     0.05280296127
     0.0747989714      0.0529304367
    0.07499897956     0.05305493983
    0.07519898773     0.05317794013
    0.07539739583     0.05329938382
    0.07559580392     0.05342121555
    0.07579261196     0.05354302394
    0.07598783283     0.05366482002
     0.0761830537     0.05378703229
    0.07637668741      0.0539077728
    0.07657032112     0.05402730571
    0.07676236767     0.05414443758
    0.07695441422     0.05426053576
     0.0771448736     0.05437524986
    0.07733375894     0.05448883821
    0.07752264429     0.05460202853
    0.07770995558     0.05471362118
    0.07789726688     0.05482465345
    0.07808300413     0.05493468281
    0.07826874139     0.05504523104
     0.0784529046     0.05515567656
    0.07863706781      0.0552669669
    0.07881965697     0.05537789112
    0.07900224613     0.05548919795
    0.07918326125      0.0555997356
    0.07936427637     0.05571021384
    0.07954371745     0.05581950169
    0.07972315852     0.05592840832
    0.07990102555     0.05603609533
    0.08007889258     0.05614384129
    0.08025518557     0.05625096179
    0.08043147856     0.05635850433
     0.0806061975     0.05646541056
    0.08078091644     0.05657230993
    0.08095406134     0.05667778884
    0.08112720623     0.05678245982
    0.08129877708     0.05688532656
     0.0814687882     0.05698677349
    0.08163879932     0.05708826219
     0.0818072507     0.05718904182
    0.08197570208     0.05728985969
    0.08214259373     0.05738941286
    0.08230948538     0.05748850603
    0.08247481729      0.0575864613
    0.08263860405     0.05768363509
     0.0828023908     0.05778114205
     0.0829646324     0.05787809876
    0.08312687399     0.05797540508
    0.08328911559     0.05807287117
    0.08344979717     0.05816925442
    0.08361047875     0.05826537129
    0.08376960032     0.05836023085
    0.08392872188     0.05845468755
    0.08408784345     0.05854868956
    0.08424538955     0.05864148415
    0.08440293566     0.05873410182
    0.08456048176     0.05882658504
    0.08471802786     0.05891920127
    0.08487396636     0.05901152081
    0.08502990485     0.05910487494
    0.08518584334     0.05919914532
    0.08534178183      0.0592936444
    0.08549607886     0.05938545682
     0.0856503759      0.0594761411
    0.08580303147     0.05956549403
    0.08595568705     0.05965375269
    0.08610834262     0.05974157961
     0.0862609982     0.05982960012
    0.08641197624     0.05991658491
    0.08656295428     0.06000335495
    0.08671393232      0.0600901565
    0.08686321398     0.06017543956
    0.08701249564     0.06026119587
     0.0871617773     0.06034685569
    0.08730934308     0.06043237312
    0.08745690886     0.06051773733
    0.08760447464       0.060603072
    0.08775030435     0.06068704116
    0.08789613406     0.06077085708
    0.08804196377     0.06085443314
    0.08818603649     0.06093704771
    0.08833010922     0.06101893238
    0.08847418194     0.06110079685
    0.08861825467      0.0611830336
    0.08876052649     0.06126457048
     0.0889027983     0.06134626472
    0.08904507012     0.06142854925
    0.08918734194     0.06151059565
    0.08932776607     0.06159112826
     0.0894681902     0.06167117263
    0.08960861433     0.06175099385
    0.08974903846     0.06183019821
    0.08988756497     0.06190725038
    0.09002609147     0.06198369904
    0.09016461798     0.06205950515
    0.09030314449      0.0621349486
    0.09043971992     0.06220913913
    0.09057629535     0.06228291285
    0.09071287078     0.06235673108
    0.09084944621     0.06243037814
    0.09098602164     0.06250379597
    0.09112055863     0.06257560839
    0.09125509562     0.06264704173
    0.09138963261     0.06271771203
     0.0915241696     0.06278813368
    0.09165870659     0.06285800664
    0.09179110807     0.06292619074
    0.09192350955      0.0629937133
    0.09205591104     0.06306022763
    0.09218831252     0.06312606098
      0.092320714     0.06319104764
    0.09245311549      0.0632556778
    0.09258323418     0.06331868125
    0.09271335288     0.06338128529
    0.09284347158     0.06344375431
    0.09297359028     0.06350646449
    0.09310370898     0.06356913907
    0.09323141807     0.06363022574
    0.09335912716     0.06369089811
    0.09348683626     0.06375091485
    0.09361454535     0.06381020984
    0.09374225444     0.06386916471
    0.09386996354     0.06392751595
    0.09399767263       0.063985884
    0.09412272112     0.06404310616
     0.0942477696     0.06410025101
    0.09437281809     0.06415729288
    0.09449786658     0.06421390708
    0.09462291506     0.06427031553
    0.09474796355     0.06432621578
    0.09487010393     0.06438352156
    0.09499224432     0.06443874199
     0.0951143847     0.06449300313
    0.09523652508     0.06454667351
    0.09535866546     0.06460012028
    0.09548080585     0.06465327608
    0.09560294623     0.06470613115
    0.09572508661     0.06475873474
    0.09584722699     0.06481126824
    0.09596587765      0.0648620085
    0.09608452831     0.06491247589
    0.09620317897     0.06496267884
    0.09632182962     0.06501258964
    0.09644048028     0.06506243989
    0.09655913094     0.06511223876
    0.09667778159     0.06516193106
    0.09679643225      0.0652115499
    0.09691508291     0.06526108899
    0.09703373357     0.06531036655
    0.09715238422     0.06536335715
    0.09727103488     0.06541731238
    0.09738968554     0.06547139472
     0.0975083362     0.06552535971
    0.09762698685     0.06557518823
    0.09774563751     0.06562327939
    0.09785835564     0.06566827864
    0.09797107376     0.06571292828
    0.09808379188      0.0657573292
    0.09819651001     0.06580149221
    0.09830922813     0.06584537692
    0.09842194626     0.06588891325
    0.09853466438     0.06593203006
    0.09864738251      0.0659746901
    0.09876010063     0.06601691676
    0.09887281876     0.06605880378
    0.09898553688     0.06610049536
      0.099098255     0.06614214475
    0.09921097313     0.06618386457
    0.09932369125     0.06622569014
    0.09943640938     0.06626756985
     0.0995491275     0.06630938533
    0.09966184563     0.06635099212
    0.09977456375     0.06639226715
    0.09988728188     0.06643314697
              0.1     0.06647364415
     0.1001111111     0.06651326306
     0.1002219753     0.06655259282
     0.1003325931     0.06659172124
     0.1004429652     0.06663071151
     0.1005530919     0.06666959539
     0.1006632186     0.06670846822
     0.1007731001     0.06674724701
     0.1008827369     0.06678593545
     0.1009918863     0.06682445105
     0.1011007933     0.06686287356
     0.1012094582     0.06690117318
     0.1013178816      0.0669392907
     0.1014260641     0.06697714761
     0.1015337668     0.06701458951
     0.1016412307     0.06705166934
     0.1017484564     0.06708841949
     0.1018554443     0.06712493505
      0.101962195     0.06716134117
      0.102068709     0.06719774892
     0.1021749868     0.06723421034
     0.1022810289     0.06727069368
      0.102386836     0.06731028461
     0.1024924084     0.06734925513
     0.1025977467      0.0673880601
     0.1027030851      0.0674285968
     0.1028081893     0.06746544004
       0.10291306     0.06750196357
     0.1030176977     0.06753847892
     0.1031221028     0.06757478615
     0.1032262759     0.06761510845
     0.1033302175     0.06765679778
     0.1034339281     0.06769844457
     0.1035374083     0.06773925299
     0.1036408884     0.06777956474
     0.1037441381     0.06781951879
     0.1038471579     0.06785989878
     0.1039499482     0.06789764409
     0.1040525095     0.06793298237
     0.1041548425     0.06796854198
     0.1042569475     0.06800460873
     0.1043588251     0.06804037898
     0.1044607027     0.06807812857
     0.1045623529     0.06811747663
     0.1046635504     0.06815731713
     0.1047647478     0.06819754853
     0.1048657194     0.06823800515
     0.1049664655     0.06827862624
     0.1050669868     0.06831931115
     0.1051672837       0.068359764
     0.1052673567     0.06840008963
     0.1053672064     0.06844008349
     0.1054668332     0.06847963708
     0.1055662375     0.06851872244
       0.10566542     0.06855738393
     0.1057643812     0.06859572113
     0.1058631214     0.06863386489
     0.1059616412     0.06867194901
     0.1060599411     0.06871007961
     0.1061580216     0.06874831115
     0.1062558832     0.06878663563
     0.1063535263     0.06882499138
     0.1064509514     0.06886329012
     0.1065481591     0.06890145194
     0.1066451499     0.06893943519
     0.1067421406     0.06897733272
     0.1068389143      0.0690151086
     0.1069354715       0.069052828
     0.1070318128     0.06909054256
      0.107128154     0.06912834856
     0.1072242792     0.06916612738
     0.1073201889     0.06920378559
     0.1074160986     0.06924128602
     0.1075117928     0.06927842946
     0.1076072719     0.06931513138
      0.107702751     0.06935144569
     0.1077980151     0.06938733269
     0.1078930646     0.06942291465
        0.1079879     0.06945700016
     0.1080825219     0.06948811823
     0.1081769306     0.06951600298
     0.1082711267     0.06954692496
     0.1083651106     0.06958142602
     0.1084588829      0.0696172234
      0.108552444     0.06965348237
     0.1086457943     0.06968984478
     0.1087389345     0.06972513656
     0.1088318648     0.06975374685
     0.1089247951     0.06978216421
     0.1090175157     0.06981200089
     0.1091100269     0.06984543927
     0.1092023293      0.0698727267
     0.1092946318     0.06990125582
     0.1093867253     0.06993077349
     0.1094786106     0.06995863267
     0.1095704958     0.06998450028
     0.1096621727     0.07000958251
     0.1097536417     0.07003775378
     0.1098449033     0.07006936421
     0.1099361649     0.07009810818
      0.110027219     0.07012425234
     0.1101180663      0.0701490634
     0.1102089135     0.07017441284
     0.1102995538     0.07020014143
     0.1103899876     0.07022532878
     0.1104804214      0.0702515818
     0.1105706488     0.07027676196
     0.1106606701     0.07030136109
     0.1107506915     0.07032555127
     0.1108405068     0.07034935779
     0.1109303222     0.07037295991
     0.1110199315      0.0703964708
     0.1111093353     0.07042370744
     0.1111987392     0.07045104528
     0.1112879375      0.0704769449
     0.1113769307     0.07050202729
      0.111465924      0.0705271426
     0.1115547122      0.0705524557
     0.1116432958     0.07057799673
     0.1117318794     0.07060379875
     0.1118202584     0.07062976756
     0.1119084333     0.07065587479
     0.1119966083      0.0706821609
     0.1120845791     0.07070854773
     0.1121725499     0.07073507599
     0.1122605207     0.07076171864
     0.1123482869     0.07078837835
     0.1124360532     0.07081507567
     0.1125236148       0.070841705
     0.1126111765     0.07086829104
     0.1126985335     0.07089475149
     0.1127858906     0.07092115829
     0.1128732477     0.07094756153
     0.1129603997     0.07097399046
     0.1130475517     0.07100062763
     0.1131344986     0.07102753435
      0.113221241     0.07105480523
     0.1133079833     0.07108254157
     0.1133945211     0.07111063695
     0.1134808548     0.07113897324
     0.1135671884      0.0711674454
      0.113653318     0.07119579532
     0.1137394476     0.07122392075
     0.1138253731     0.07125164171
     0.1139110949      0.0712789212
     0.1139968168     0.07130586293
     0.1140823351     0.07134000245
     0.1141678533     0.07137653224
     0.1142531679     0.07141384767
     0.1143382794     0.07145152201
      0.114423391     0.07148954422
     0.1145082993     0.07152778245
     0.1145932077     0.07156625857
     0.1146779129     0.07160476228
     0.1147624155     0.07164314849
      0.114846716     0.07167360817
     0.1149310164     0.07170126494
     0.1150151147     0.07172766532
      0.115099213     0.07175339689
     0.1151831091     0.07177861388
     0.1152670052     0.07181116128
     0.1153506992     0.07183832434
     0.1154341915     0.07186377067
     0.1155176838     0.07188890854
     0.1156009744     0.07192193781
     0.1156840638     0.07195778757
     0.1157671533     0.07199484559
     0.1158500415     0.07202451227
     0.1159327291      0.0720518208
     0.1160152164     0.07207835992
     0.1160977037     0.07211243914
     0.1161799909     0.07214883065
      0.116262278     0.07218596691
     0.1163443649      0.0722232459
     0.1164262521     0.07226053619
     0.1165081393     0.07229791615
     0.1165898268     0.07232737259
     0.1166715142     0.07236225133
     0.1167532017     0.07239890198
     0.1168346889     0.07243598212
     0.1169161762     0.07247312594
     0.1169974632     0.07251008023
     0.1170787503     0.07254693144
     0.1171598371     0.07258359351
     0.1172409239     0.07261211505
     0.1173218105     0.07263801396
     0.1174026971     0.07266328122
     0.1174833835      0.0726885216
     0.1175640699     0.07271401531
     0.1176445561     0.07273973884
     0.1177250423      0.0727739397
     0.1178055284     0.07280274434
     0.1178858139     0.07282975642
     0.1179660994     0.07285623413
     0.1180461841     0.07289079734
     0.1181262689     0.07292813064
     0.1182061529     0.07296639144
      0.118286037     0.07300513652
      0.118365921     0.07303937344
     0.1184456038     0.07306916711
     0.1185252866     0.07309715206
     0.1186047682     0.07312466666
     0.1186842498     0.07315222251
     0.1187635302     0.07317986715
     0.1188428106     0.07320768406
     0.1189218898     0.07323558124
     0.1190009689      0.0732635913
     0.1190798469     0.07329159199
     0.1191587248     0.07331959359
     0.1192374015     0.07334746412
     0.1193160782     0.07337522969
     0.1193945537     0.07340280138
     0.1194730292      0.0734302647
     0.1195513035     0.07345759879
     0.1196295778     0.07348494937
     0.1197076509     0.07351233035
     0.1197857239     0.07353988685
     0.1198635958     0.07356759238
     0.1199414676     0.07359553288
     0.1200191383     0.07362361633
     0.1200968089     0.07365187194
     0.1201742783      0.0736801735
     0.1202517477     0.07370855061
     0.1203290159     0.07373690535
     0.1204062841     0.07376531387
      0.120483351     0.07379373095
      0.120560418     0.07382228334
     0.1206372838     0.07385096024
     0.1207141495     0.07387990149
     0.1207910153     0.07390915894
     0.1208676793     0.07393867994
     0.1209443433      0.0739685297
     0.1210210073     0.07399865605
      0.121097469     0.07402888863
     0.1211739307     0.07405919035
     0.1212503924     0.07408943753
     0.1213266513     0.07411944374
     0.1214029102     0.07414922257
     0.1214791692     0.07417876215
     0.1215552247     0.07420803449
     0.1216312803     0.07423721989
     0.1217073358     0.07426645141
     0.1217831874     0.07429578479
     0.1218590391     0.07432540865
     0.1219348907     0.07435539027
     0.1220105379      0.0743856603
     0.1220861851     0.07441626239
     0.1221616279     0.07444703781
     0.1222370706     0.07447797147
     0.1223123089     0.07450888436
     0.1223875472     0.07453977987
     0.1224627855     0.07457060611
     0.1225378188     0.07460126272
     0.1226128521     0.07463185296
     0.1226876803      0.0746623402
     0.1227625086     0.07469288332
     0.1228373369     0.07472355778
     0.1229121651     0.07475442803
     0.1229867873     0.07478541723
     0.1230614094     0.07482554177
     0.1231360315     0.07486877489
     0.1232106537      0.0749130414
     0.1232852758     0.07495501283
     0.1233596901     0.07499229806
     0.1234341044     0.07502615692
     0.1235085186     0.07505787519
     0.1235829329     0.07508875893
     0.1236571382     0.07511917347
     0.1237313434     0.07514939137
     0.1238055486     0.07517952263
     0.1238797539     0.07520965473
     0.1239537489     0.07523977517
      0.124027744     0.07527002456
      0.124101739     0.07530043815
      0.124175734      0.0753310333
     0.1242495176      0.0753617271
     0.1243233013     0.07539261019
     0.1243970849     0.07542369387
     0.1244708685     0.07545499482
     0.1245444395     0.07548644811
     0.1246180105     0.07551817908
     0.1246915814     0.07555020713
     0.1247651524     0.07558251798
     0.1248387234     0.07561505839
     0.1249120799     0.07564764712
     0.1249854364     0.07568027246
     0.1250587929     0.07571282454
     0.1251321494     0.07574521037
     0.1252052901     0.07577727829
     0.1252784308     0.07580911366
     0.1253515716     0.07584075659
     0.1254247123     0.07587228702
      0.125497636     0.07590371208
     0.1255705597     0.07593522472
     0.1256434834      0.0759669074
     0.1257161894     0.07599871687
     0.1257888955     0.07603076615
     0.1258613838     0.07606294372
     0.1259338721     0.07609530668
     0.1260063605     0.07612780408
     0.1260786305     0.07616028259
     0.1261509005      0.0761927938
     0.1262229521     0.07622520472
     0.1262950038      0.0762575919
     0.1263670555     0.07628994381
     0.1264388881     0.07632215935
     0.1265107208     0.07635433803
     0.1265825534     0.07638648426
     0.1266541664     0.07641850665
     0.1267257794     0.07645051576
     0.1267973924     0.07648251561
     0.1268690054     0.07651452153
     0.1269403973     0.07654645592
     0.1270117893     0.07657844315
     0.1270831813     0.07660872935
     0.1271543515     0.07663625714
     0.1272255217     0.07666200343
      0.127296692     0.07668618176
     0.1273676398     0.07671854951
     0.1274385877     0.07674433311
     0.1275095355     0.07677501845
     0.1275802602     0.07681702792
      0.127650985      0.0768585359
     0.1277217097     0.07689421479
     0.1277924344     0.07691524195
     0.1278631592     0.07693083967
     0.1279336586     0.07694430985
     0.1280041581     0.07696537036
     0.1280746576      0.0769808009
     0.1281451571     0.07700732628
     0.1282156566     0.07703743937
     0.1282861561     0.07706869998