# Probe 0 (3.4 0.005 1.5)
# Probe 1 (4.4 0.005 1.5)
# Probe 2 (5.4 0.005 1.5)
# Probe 3 (5.9 0.005 1.5)
# Probe 4 (6.2 0.005 1.5)
# Probe 5 (6.7 0.005 1.5)
# Probe 6 (8.2 0.005 1.5)
#           Probe                 0                 1                 2                 3                 4                 5                 6
#            Time
    1.1999904e-06     0.09999960001     0.09999960001     0.09999960001     0.09999960001     0.09999960001     0.09999960001     0.09999960001
  2.639965056e-06     0.09999912003     0.09999912003     0.09999912003     0.09999912003     0.09999912003     0.09999912003     0.09999912003
  4.367944597e-06     0.09999854405     0.09999854405     0.09999854405     0.09999854405     0.09999854405     0.09999854405     0.09999854405
  6.441505713e-06      0.0999978529      0.0999978529      0.0999978529      0.0999978529      0.0999978529      0.0999978529      0.0999978529
   8.92973777e-06     0.09999702355     0.09999702355     0.09999702355     0.09999702355     0.09999702355     0.09999702355     0.09999702355
  1.191552707e-05     0.09999602839     0.09999602839     0.09999602839     0.09999602839     0.09999602839     0.09999602839     0.09999602839
  1.549838863e-05     0.09999483426     0.09999483426     0.09999483426     0.09999483426     0.09999483426     0.09999483426     0.09999483426
  1.979776087e-05     0.09999340138     0.09999340138     0.09999340138     0.09999340138     0.09999340138     0.09999340138     0.09999340138
  2.495674128e-05     0.09999168209     0.09999168209     0.09999168209     0.09999168209     0.09999168209     0.09999168209     0.09999168209
  3.114713435e-05     0.09998961917     0.09998961917     0.09998961917     0.09998961917     0.09998961917     0.09998961917     0.09998961917
  3.857523794e-05     0.09998714396     0.09998714396     0.09998714396     0.09998714396     0.09998714396     0.09998714396     0.09998714396
  4.748896225e-05     0.09998417393     0.09998417393     0.09998417393     0.09998417393     0.09998417393     0.09998417393     0.09998417393
  5.818543142e-05     0.09998061023     0.09998061023     0.09998061023     0.09998061023     0.09998061023     0.09998061023     0.09998061023
  7.102064463e-05     0.09997633445     0.09997633445     0.09997633445     0.09997633445     0.09997633445     0.09997633445     0.09997633445
  8.642131685e-05     0.09997120472     0.09997120472     0.09997120472     0.09997120472     0.09997120472     0.09997120472     0.09997120472
  0.0001049009832     0.09996505043     0.09996505041     0.09996505041     0.09996505041     0.09996505041     0.09996505041     0.09996505041
  0.0001270765827      0.0999576667     0.09995766666     0.09995766666     0.09995766666     0.09995766666     0.09995766666     0.09995766666
  0.0001536896689     0.09994880752     0.09994880742     0.09994880742     0.09994880742     0.09994880742     0.09994880742     0.09994880742
  0.0001856219625     0.09993818066     0.09993818041     0.09993818041     0.09993818041     0.09993818041     0.09993818041     0.09993818041
  0.0002239407148     0.09992543287     0.09992543223     0.09992543223     0.09992543223     0.09992543223     0.09992543223     0.09992543223
  0.0002699019884     0.09991014919     0.09991014756     0.09991014757     0.09991014757     0.09991014757     0.09991014757     0.09991014757
  0.0003250351347     0.09989182559      0.0998918215      0.0998918215      0.0998918215      0.0998918215      0.0998918215      0.0998918215
  0.0003911802278     0.09986985791     0.09986984769      0.0998698477      0.0998698477      0.0998698477      0.0998698477      0.0998698477
  0.0004705543394     0.09984352258     0.09984349723     0.09984349724     0.09984349724     0.09984349724     0.09984349724     0.09984349724
  0.0005658032734     0.09981196498     0.09981190272     0.09981190273     0.09981190274     0.09981190274     0.09981190274     0.09981190274
  0.0006799700095     0.09977422113     0.09977407047     0.09977407047     0.09977407049     0.09977407049     0.09977407049     0.09977407049
  0.0008169700928     0.09972908292     0.09972872548     0.09972872544     0.09972872549     0.09972872549     0.09972872549     0.09972872549
  0.0009814618316     0.09967518187     0.09967435841     0.09967435827     0.09967435838     0.09967435838     0.09967435838     0.09967435838
   0.001179117227     0.09961095741     0.09960914153     0.09960914106     0.09960914131     0.09960914132     0.09960914132     0.09960914132
   0.001416111804     0.09953485332     0.09953110454     0.09953110306      0.0995311036     0.09953110362     0.09953110362     0.09953110362
   0.001666544217     0.09945544289     0.09944883298     0.09944882868     0.09944882974     0.09944882978     0.09944882978     0.09944882978
   0.001916976631     0.09937683116     0.09936675756     0.09936674637     0.09936674821     0.09936674829      0.0993667483      0.0993667483
   0.002167409044     0.09929858881     0.09928488253      0.0992848558     0.09928485873      0.0992848589     0.09928485892     0.09928485892
   0.002417841458     0.09922014371     0.09920321514     0.09920315619     0.09920316054     0.09920316087     0.09920316091     0.09920316092
   0.002668273871     0.09914093781     0.09912176706     0.09912164676     0.09912165285     0.09912165344     0.09912165354     0.09912165354
   0.002918706284     0.09906057234     0.09904055503      0.0990403268     0.09904033488     0.09904033587     0.09904033607     0.09904033607
   0.003169138698     0.09897889879     0.09895960151     0.09895919638     0.09895920655     0.09895920812     0.09895920847     0.09895920849
   0.003419571111     0.09889603657     0.09887893094     0.09887825365     0.09887826561     0.09887826799     0.09887826861     0.09887826865
   0.003670003524      0.0988123594     0.09879857122     0.09879749914     0.09879751199     0.09879751541     0.09879751647     0.09879751655
   0.003920435938     0.09872835064     0.09871854666     0.09871693313     0.09871694494     0.09871694962     0.09871695131     0.09871695146
   0.004170868351     0.09864447484     0.09863887351     0.09863655645     0.09863656378     0.09863656982      0.0986365724     0.09863657267
   0.004421300765     0.09856110224     0.09855955395     0.09855637025     0.09855636798     0.09855637525     0.09855637902     0.09855637947
   0.004671733178     0.09847851877     0.09848057102     0.09847637714     0.09847635838     0.09847636633     0.09847637158     0.09847637234
   0.004922165591     0.09839691828     0.09840187819     0.09839657727     0.09839653257     0.09839654008     0.09839654701     0.09839654822
   0.005172598005     0.09831634211     0.09832340214     0.09831697514     0.09831689199     0.09831689713     0.09831690575     0.09831690759
   0.005423030418     0.09823665232     0.09824503974     0.09823757566     0.09823743713     0.09823743712     0.09823744704     0.09823744976
   0.005673462831     0.09815761712     0.09816666884     0.09815838566     0.09815816866     0.09815815993     0.09815817019     0.09815817404
   0.005923895245     0.09807903128     0.09808816575     0.09807941315     0.09807908755     0.09807906566     0.09807907451     0.09807907973
   0.006174327658     0.09800077505     0.09800942919     0.09800066721     0.09800019479     0.09800015471      0.0980001594     0.09800016616
   0.006424760072     0.09792281908     0.09793040489      0.0979221574     0.09792149221     0.09792142754     0.09792142434     0.09792143264
   0.006675192485     0.09784519519     0.09785110353     0.09784389273     0.09784298269     0.09784288446     0.09784286892     0.09784287849
   0.006925624898     0.09776794491     0.09777160672     0.09776588013     0.09776467006     0.09776452617     0.09776449291     0.09776450305
   0.007176057312     0.09769108128     0.09769206039     0.09768812243     0.09768655927     0.09768635382     0.09768629624     0.09768630564
   0.007426489725     0.09761458028     0.09761265823     0.09761061811     0.09760865805     0.09760837122     0.09760828087     0.09760828749
   0.007676922139     0.09753837757     0.09753360278     0.09753335162     0.09753096905     0.09753057753     0.09753044308     0.09753044413
   0.007927354552     0.09746240011     0.09745508681     0.09745630303     0.09745350079     0.09745297848       0.097452785      0.0974527768
   0.008177786965     0.09738657865     0.09737725588     0.09737943564     0.09737625527      0.0973755746     0.09737530284     0.09737528072
   0.008428219379      0.0973108358     0.09730020575     0.09730272008     0.09729924913     0.09729838351     0.09729800957     0.09729796754
   0.008678651792     0.09723502589     0.09722393442     0.09722609773     0.09722247171     0.09722139882     0.09722089417      0.0972208243
   0.008929084205      0.0971590014     0.09714839218     0.09714952872     0.09714592446     0.09714463046     0.09714396267     0.09714385445
   0.009179516619     0.09708264174     0.09707347218     0.09707298005     0.09706959937     0.09706808355     0.09706721763     0.09706705732
   0.009429949032     0.09700586924      0.0969990245     0.09699643812     0.09699348232     0.09699176152     0.09699066231     0.09699043229
   0.009680381446     0.09692868342     0.09692486517     0.09691991413     0.09691755311     0.09691566507     0.09691430051     0.09691397873
   0.009930813859      0.0968511676     0.09685078619     0.09684344507     0.09684178649     0.09683979115     0.09683813652     0.09683769604
    0.01018124627     0.09677347167     0.09677656996     0.09676709212     0.09676615448     0.09676413209     0.09676217485     0.09676158366
    0.01043167869     0.09669580027      0.0967020121     0.09669093385     0.09669063013     0.09668867504     0.09668641982     0.09668564106
     0.0106821111     0.09661838885     0.09662694853     0.09661505391     0.09661519159     0.09661340188     0.09661087506      0.0966098678
    0.01093254351     0.09654147464     0.09655128243     0.09653952453      0.0965398257     0.09653829008     0.09653554283      0.0965342635
    0.01118297593      0.0964652667     0.09647500338     0.09646438706     0.09646453103     0.09646331458     0.09646042333     0.09645882782
    0.01143340834     0.09638991811     0.09639820797     0.09638963893     0.09638931903     0.09638845069     0.09638551401     0.09638356049
    0.01168384075     0.09631550497     0.09632109631       0.096315227     0.09631421237     0.09631367733     0.09631080901     0.09630846128
    0.01193427317     0.09624201009     0.09624393686     0.09624104861     0.09623924033     0.09623898013     0.09623629854     0.09623352993
    0.01218470558     0.09616931786     0.09616704595     0.09616696712     0.09616443482     0.09616435635     0.09616197167     0.09615876946
    0.01243513799     0.09609721557     0.09609072895      0.0960928239     0.09608981096     0.09608980289     0.09608780477     0.09608417403
    0.01268557041     0.09602544537     0.09601524837     0.09601848048      0.0960153778     0.09601533291     0.09601378049     0.09600974725
    0.01293600282     0.09595374865     0.09594077088     0.09594383749     0.09594112096     0.09594096074     0.09593987712     0.09593548995
    0.01318643523     0.09588191668     0.09586734997     0.09586886431     0.09586700508     0.09586670112     0.09586607338      0.0958614033
    0.01343686765     0.09580981304     0.09579492542     0.09579361652      0.0957929801     0.09579256452     0.09579235021     0.09578748875
    0.01368730006     0.09573738504     0.09572334924     0.09571823844     0.09571899119     0.09571855348      0.0957186924      0.0957137481
    0.01393773247     0.09566466383     0.09565242244     0.09564294948     0.09564499203     0.09564466144     0.09564508979     0.09564018342
    0.01418816489     0.09559175225     0.09558192328     0.09556801675     0.09557096187     0.09557087538     0.09557153791       0.095566797
     0.0144385973     0.09551880204     0.09551163115     0.09549371329     0.09549691457     0.09549718179     0.09549803809     0.09549359127
    0.01468902971     0.09544598398     0.09544132903     0.09542026978     0.09542291055     0.09542357264     0.09542459723     0.09542056859
    0.01493946213     0.09537343948     0.09537082867     0.09534782606     0.09534905357     0.09535005041     0.09535122721     0.09534773105
    0.01518989454     0.09530123627     0.09529999047     0.09527640097     0.09527548118     0.09527663977     0.09527794452     0.09527508014
    0.01544032695     0.09522933505     0.09522874184     0.09520587435     0.09520234415     0.09520339012     0.09520477023     0.09520261639
    0.01569075937     0.09515757213     0.09515709141     0.09513600791     0.09512978049     0.09513037382     0.09513172991     0.09513033884
    0.01594119178     0.09508568696     0.09508511591     0.09506649102     0.09505789029     0.09505767981     0.09505885273     0.09505824461
    0.01619162419     0.09501339421     0.09501290675     0.09499698802     0.09498670983     0.09498540017     0.09498616993     0.09498632839
    0.01644205661     0.09494047303     0.09494055899     0.09492719314     0.09491619637     0.09491361349     0.09491371733     0.09491458207
    0.01669248902     0.09486683596     0.09486849909     0.09485697781     0.09484622966     0.09484236883     0.09484153327     0.09484299451
    0.01694292143     0.09479255735      0.0947971324     0.09478632399     0.09477663103     0.09477167163     0.09476965518      0.0947715516
    0.01719335385     0.09471786519     0.09472632456     0.09471533465     0.09470717942     0.09470147543     0.09469811721     0.09470023661
    0.01744378626     0.09464310703     0.09465539296     0.09464427358     0.09463764682     0.09463168437     0.09462694555     0.09462903113
    0.01769421867     0.09456869311     0.09458419168     0.09457336973     0.09456783679     0.09456215508     0.09455615338     0.09455791637
    0.01794465109     0.09449502542      0.0945123653      0.0945026758      0.0944976265     0.09449271925     0.09448573614       0.094486875
     0.0181950835     0.09442242926     0.09443966711     0.09443204659     0.09442698759     0.09442319869     0.09441566813     0.09441589308
    0.01844551591     0.09435110564     0.09436614992      0.0943611749     0.09435599501     0.09435343498     0.09434590158     0.09434496211
    0.01869594833     0.09428110872     0.09429212903      0.0942896934     0.09428480561     0.09428332482     0.09427636833      0.0942740807
    0.01894638074     0.09421234402     0.09421806498     0.09421732309     0.09421360793     0.09421284194     0.09420698419     0.09420325575
    0.01919681315     0.09414458741      0.0941444694     0.09414401493     0.09414256747     0.09414204996     0.09413766048     0.09413250786
    0.01944724557     0.09407750377     0.09407180519     0.09407000483     0.09407175272     0.09407107264     0.09406829495     0.09406185192
    0.01969767798     0.09401073375      0.0940004317     0.09399579146     0.09400113967     0.09400009108     0.09399881278      0.0939913247
    0.01994811039     0.09394395411     0.09393053783     0.09392197427     0.09393060388     0.09392927977     0.09392916107     0.09392096371
    0.02019854281     0.09387693297     0.09386214768      0.0938491444     0.09385997382     0.09385876689     0.09385932513      0.0938508089
    0.02044897522     0.09380954652     0.09379509943     0.09377780621     0.09378910501     0.09378860046     0.09378933456     0.09378089848
    0.02069940763     0.09374176576     0.09372910295      0.0937082819     0.09371795927     0.09371873633     0.09371926163     0.09371126418
    0.02094984005     0.09367362013     0.09366380637     0.09364061578     0.09364666099     0.09364905778     0.09364920985     0.09364192699
    0.02120027246     0.09360515321     0.09359883414     0.09357454845     0.09357549709     0.09357942457     0.09357929488     0.09357289477
    0.02145070487     0.09353638936     0.09353382926     0.09350958202     0.09350485767     0.09350973459     0.09350962228     0.09350416169
    0.02170113729     0.09346732376     0.09346847428     0.09344507345     0.09343514371      0.0934399752     0.09344026582     0.09343570904
     0.0219515697     0.09339793568     0.09340251639     0.09338036128      0.0933666553     0.09337024782     0.09337125249     0.09336750679
    0.02220200211     0.09332821379     0.09333579253      0.0933148835     0.09329948789     0.09330076059      0.0933025584     0.09329951554
    0.02245243453     0.09325818137     0.09326826267     0.09324828705     0.09323348221     0.09323177816     0.09323412049     0.09323168891
    0.02270286694     0.09318791441      0.0931999898     0.09318047524     0.09316825936     0.09316353211     0.09316585813     0.09316397677
    0.02295329935     0.09311755121     0.09313106592     0.09311159449     0.09310330407     0.09309613909     0.09309770123     0.09309632955
    0.02320373177     0.09304728919      0.0930616624     0.09304198164      0.0930380595     0.09302955922     0.09302961292     0.09302870344
    0.02345416418     0.09297737028     0.09299199461      0.0929720772     0.09297205104     0.09296359191     0.09296160234     0.09296106564
    0.02370459659     0.09290805638     0.09292228028     0.09290232218     0.09290499351     0.09289790416     0.09289372157     0.09289339893
    0.02395502901     0.09283959533      0.0928527117     0.09283306047     0.09283685178     0.09283210301      0.0928260443     0.09282570439
    0.02420546142     0.09277218614     0.09278344709     0.09276448291     0.09276783455     0.09276583582     0.09275863724     0.09275800207
    0.02445589384       0.092705948     0.09271466028      0.0926966244     0.09269833082      0.0926988794     0.09269153454     0.09269032919
    0.02470632625     0.09264089542     0.09264656218     0.09262939178     0.09262881254     0.09263119353     0.09262472183     0.09262273619
    0.02495675866     0.09257692156      0.0925793128     0.09256261725     0.09255972431     0.09256292313     0.09255813509     0.09255528118
    0.02520719108     0.09251379438     0.09251300567     0.09249612338     0.09249139625     0.09249435501     0.09249167699     0.09248802311
    0.02545762349     0.09245117918      0.0924476549     0.09242977682      0.0924239856     0.09242584812     0.09242524619      0.0924210143
     0.0257080559     0.09238868218     0.09238318152     0.09236351557     0.09235746746     0.09235774484     0.09235876627     0.09235429285
    0.02595848832     0.09232591364      0.0923194203     0.09229734781     0.09229167111     0.09229029708     0.09229220305     0.09228787618
    0.02620892073      0.0922625299     0.09225614834     0.09223132789     0.09222634519      0.0922236168     0.09222557058     0.09222175687
    0.02645935314     0.09219825535     0.09219311936     0.09216551949     0.09216123322     0.09215766673     0.09215892789      0.0921559016
    0.02670978556     0.09213293831     0.09213008261     0.09209996144     0.09209613974     0.09209229181      0.0920923592     0.09209025392
    0.02696021797     0.09206657127     0.09206681192     0.09203464883     0.09203096549     0.09202727696     0.09202595575     0.09202474076
    0.02721065038     0.09199929701     0.09200311226     0.09196953356      0.0919657057     0.09196241021     0.09195979227     0.09195928214
     0.0274610828     0.09193137903     0.09193883794     0.09190454446     0.09190042084      0.0918975339     0.09189391404     0.09189380326
    0.02771151521     0.09186315043     0.09187390801     0.09183961606     0.09183519572     0.09183257346      0.0918283347     0.09182824724
    0.02796194762     0.09179495336     0.09180830772     0.09177470784     0.09177010044     0.09176754029     0.09176304207      0.0917625862
    0.02821238004     0.09172708365     0.09174207489      0.0917098075     0.09170516419     0.09170250991     0.09169800885     0.09169682831
    0.02846281245     0.09165975136     0.09167530471     0.09164492086     0.09164036971      0.0916375837     0.09163320496      0.0916310191
    0.02871324486     0.09159306415     0.09160814641     0.09158005287     0.09157566729     0.09157284803     0.09156860692     0.09156523581
    0.02896367728     0.09152703062     0.09154079701     0.09151518753      0.0915109993     0.09150834313     0.09150420086     0.09149957644
    0.02921410969     0.09146157933     0.09147348782     0.09145027858     0.09144632324     0.09144405048     0.09143997886     0.09143414496
     0.0294645421     0.09139658631     0.09140646471     0.09138525771      0.0913816239     0.09137990018     0.09137593157     0.09136903453
    0.02971497452     0.09133190427     0.09133996278     0.09132005729     0.09131691184     0.09131579389     0.09131204052      0.0913043117
    0.02996540693     0.09126738836      0.0912741814     0.09125463881     0.09125221128     0.09125163457     0.09124827303      0.0912400052
    0.03021583934     0.09120291673      0.0912092641     0.09118901676     0.09118754388     0.09118735339     0.09118458134     0.09117610152
    0.03046627176      0.0911384104      0.0911452825     0.09112327671     0.09112292364     0.09112293361     0.09112091402     0.09111255565
    0.03071670417      0.0910738197      0.0910822126      0.0910575391     0.09105832529     0.09105838304     0.09105719599       0.091049272
    0.03096713658     0.09100916279     0.09102001551     0.09099198191     0.09099373742     0.09099376621     0.09099338336     0.09098616017
      0.031217569     0.09094450142     0.09095858602     0.09092678087     0.09092914992     0.09092915587     0.09092944496     0.09092312113
    0.03146800141     0.09087993748     0.09089776271     0.09086208792     0.09086457793     0.09086462175     0.09086537716     0.09086006924
    0.03171843382      0.0908155961     0.09083735116     0.09079801113     0.09080007099     0.09080021849     0.09080120698     0.09079694455
    0.03196886624     0.09075160164     0.09077714834     0.09073460696     0.09073571062     0.09073598234     0.09073698987     0.09073372101
    0.03221929865     0.09068805149     0.09071696411     0.09067188388     0.09067159713     0.09067193594     0.09067280211     0.09067040919
    0.03246973106     0.09062499281     0.09065663907     0.09060981454     0.09060783091     0.09060809813     0.09060872931     0.09060705299
    0.03272016348     0.09056241029     0.09059605788     0.09054834888     0.09054449505     0.09054449359     0.09054485345     0.09054372121
    0.03297059589     0.09050023039     0.09053515784     0.09048741988     0.09048164353     0.09048115779     0.09048124105     0.09048049544
     0.0332210283     0.09043834254     0.09047392841     0.09042694033     0.09041929759     0.09041813545     0.09041793456     0.09041745535
    0.03347146072     0.09037663132     0.09041239831      0.0903667953     0.09035744891     0.09035547327     0.09035494867     0.09035466405
    0.03372189313     0.09031500802     0.09035061254     0.09030683631     0.09029606609     0.09029320981     0.09029227252      0.0902921563
    0.03397232554     0.09025342888     0.09028861513     0.09024688199      0.0902350997     0.09023136607     0.09022987726     0.09022993233
    0.03422275796     0.09019189524     0.09022643874      0.0901867276     0.09017448347     0.09016993899      0.0901677274     0.09016795852
    0.03447319037     0.09013043306     0.09016410186     0.09012616516     0.09011413184     0.09010889895     0.09010579236     0.09010617435
    0.03472362278     0.09006906426     0.09010162745     0.09006501245     0.09005393643     0.09004819072     0.09004405546     0.09004450401
     0.0349740552     0.09000778483     0.09003905717     0.09000314739     0.08999376527     0.08998773719     0.08998251749     0.08998287122
    0.03522448761     0.08994655394     0.08997645685     0.08994054054     0.08993346883     0.08992744443     0.08992119392     0.08992121401
    0.03547492002     0.08988530116     0.08991391383     0.08987727673     0.08987289486     0.08986720697      0.0898601064     0.08985949625
    0.03572535244     0.08982394692     0.08985152879     0.08981355653     0.08981191121     0.08980691411     0.08979927071     0.08979771332
    0.03597578485     0.08976242747     0.08978940094     0.08974967143     0.08975043256     0.08974645814     0.08973868443     0.08973589127
    0.03622621726     0.08970070953     0.08972760394     0.08968595339     0.08968844449     0.08968574602     0.08967831798     0.08967408014
    0.03647664968     0.08963884064     0.08966617255     0.08962270901     0.08962601779     0.08962471332     0.08961811188     0.08961234368
    0.03672708209     0.08957687809         0.0896051     0.08956015616     0.08956330696      0.0895633379     0.08955798173     0.08955074756
     0.0369775145     0.08951493705     0.08954435447      0.0894983814     0.08950053099     0.08950165033     0.08949783022     0.08948934847
    0.03722794692     0.08945323208      0.0894839058     0.08943733139     0.08943793802      0.0894397373      0.0894375638     0.08942818639
    0.03747837933     0.08939192106     0.08942374893     0.08937684371     0.08937576063     0.08937773473     0.08937711061      0.0893672814
    0.03772881174     0.08933110426     0.08936391648     0.08931670751     0.08931417182     0.08931581026     0.08931643615     0.08930663445
    0.03797924416     0.08927087557     0.08930447377     0.08925672912     0.08925325229     0.08925413694     0.08925555279     0.08924623122
    0.03822967657     0.08921116491     0.08924549459     0.08919677977     0.08919297797     0.08919286287     0.08919452045     0.08918604736
    0.03848010898     0.08915180986     0.08918702415     0.08913681363     0.08913323241      0.0891320836     0.08913343824     0.08912605403
     0.0387305414     0.08909256484     0.08912905241     0.08907685606     0.08907383889     0.08907182414     0.08907242836     0.08906622277
    0.03898097381     0.08903321365      0.0890715071     0.08901697055     0.08901460373     0.08901203576      0.0890116154     0.08900652861
    0.03923140622     0.08897361563      0.0890142625     0.08895722139     0.08895535802     0.08895260889     0.08895110513     0.08894695145
    0.03948183864     0.08891367741     0.08895715992     0.08889764808      0.0888959882     0.08889339917     0.08889096673     0.08888747597
    0.03973227105     0.08885345713     0.08890003321     0.08883825823     0.08883644877     0.08883425954     0.08883122203     0.08882809123
    0.03998270346      0.0887929245     0.08884272869     0.08877903546     0.08877675774     0.08877507063      0.0887718435     0.08876879006
    0.04023313588     0.08873213803     0.08878511591      0.0887199537      0.0887169797     0.08871576231     0.08871276145     0.08870956846
    0.04048356829     0.08867116422     0.08872709425      0.0886609894     0.08865720388     0.08865632248      0.0886538785     0.08865042494
     0.0407340007     0.08861012713     0.08866860432     0.08860212637     0.08859752368     0.08859679204     0.08859508819     0.08859136015
    0.04098443312     0.08854919496     0.08860963067     0.08854335415     0.08853802147     0.08853724863     0.08853629425     0.08853237665
    0.04123486553     0.08848857165     0.08855020488     0.08848466407     0.08847875951     0.08847778498     0.08847742669     0.08847347845
    0.04148529795     0.08842843475     0.08849043768     0.08842604742     0.08841977564     0.08841848751     0.08841845192      0.0884146704
    0.04173573036     0.08836882257      0.0884305049     0.08836749685     0.08836108207     0.08835942011     0.08835937587     0.08835595732
    0.04198616277     0.08830966533     0.08837062546     0.08830900932     0.08830266657     0.08830061546     0.08830023993     0.08829734331
    0.04223659519     0.08825082107     0.08831102453     0.08825058695     0.08824449624     0.08824207432     0.08824111135     0.08823883123
     0.0424870276     0.08819204253     0.08825189466     0.08819223349     0.08818652433     0.08818377131     0.08818207007     0.08818042281
    0.04273746001     0.08813309138     0.08819336874     0.08813394777      0.0881286993     0.08812566531     0.08812319427     0.08812211906
    0.04298789243     0.08807382148     0.08813552958     0.08807571869     0.08807097396      0.0880677114     0.08806454766     0.08806392064
    0.04323832484     0.08801414651     0.08807841773     0.08801752655     0.08801331186     0.08800987212     0.08800617028     0.08800582793
    0.04348875725      0.0879540404     0.08802200217     0.08795935235     0.08795568934     0.08795212536     0.08794807447     0.08794784052
    0.04373918967     0.08789355085      0.0879661918     0.08790119225     0.08789809311     0.08789446765     0.08789024658     0.08788995624
    0.04398962208     0.08783281127     0.08791084432     0.08784307169     0.08784051547     0.08783691165     0.08783265375     0.08783216991
    0.04424005449     0.08777198679      0.0878557827     0.08778505227      0.0877829504     0.08777947847     0.08777525413     0.08777447248
    0.04449048691     0.08771120353     0.08780081061     0.08772722625     0.08772539381     0.08772218674     0.08771800796     0.08771685109
    0.04474091932     0.08765067932     0.08774573089     0.08766969891     0.08766784866     0.08766504211     0.08766088668     0.08765929044
    0.04499135173     0.08759055123     0.08769036913     0.08761256566     0.08761033318     0.08760803131     0.08760387771     0.08760177543
    0.04524178415     0.08753090352     0.08763460042      0.0875558956     0.08755288769     0.08755112332     0.08754698375     0.08754429468