# Probe 0 (4.8 0.005 1.5)
#           Probe                 0
#            Time
    1.1999904e-06                 1
  2.639965056e-06                 1
  4.367944597e-06                 1
  6.441505713e-06                 1
   8.92973777e-06                 1
  1.191552707e-05                 1
  1.549838863e-05                 1
  1.979776087e-05                 1
  2.495674128e-05                 1
  3.114713435e-05                 1
  3.857523794e-05                 1
  4.748896225e-05                 1
  5.818543142e-05                 1
  7.102064463e-05                 1
  8.642131685e-05                 1
  0.0001049009832                 1
  0.0001270765827                 1
  0.0001536896689                 1
  0.0001856219625                 1
  0.0002239407148                 1
  0.0002699019884                 1
  0.0003250351347                 1
  0.0003911802278                 1
  0.0004705543394                 1
  0.0005658032734                 1
  0.0006799700095                 1
  0.0008169700928                 1
  0.0009814618316                 1
   0.001179117227                 1
   0.001416111804                 1
   0.001666544217                 1
   0.001916976631                 1
   0.002167409044                 1
   0.002417841458                 1
   0.002668273871                 1
   0.002918706284                 1
   0.003169138698                 1
   0.003419571111                 1
   0.003670003524                 1
   0.003920435938                 1
   0.004170868351                 1
   0.004421300765                 1
   0.004671733178                 1
   0.004922165591                 1
   0.005172598005                 1
   0.005423030418                 1
   0.005673462831                 1
   0.005923895245                 1
   0.006174327658                 1
   0.006424760072                 1
   0.006675192485                 1
   0.006925624898                 1
   0.007176057312                 1
   0.007426489725                 1
   0.007676922139                 1
   0.007927354552                 1
   0.008177786965                 1
   0.008428219379                 1
   0.008678651792                 1
   0.008929084205                 1
   0.009179516619                 1
   0.009429949032                 1
   0.009680381446                 1
   0.009930813859                 1
    0.01018124627                 1
    0.01043167869                 1
     0.0106821111                 1
    0.01093254351                 1
    0.01118297593                 1
    0.01143340834                 1
    0.01168384075                 1
    0.01193427317                 1
    0.01218470558                 1
    0.01243513799                 1
    0.01268557041                 1
    0.01293600282                 1
    0.01318643523                 1
    0.01343686765                 1
    0.01368730006                 1
    0.01393773247                 1
    0.01418816489                 1
     0.0144385973                 1
    0.01468902971                 1
    0.01493946213                 1
    0.01518989454                 1
    0.01544032695                 1
    0.01569075937                 1
    0.01594119178                 1
    0.01619162419                 1
    0.01644205661                 1
    0.01669248902                 1
    0.01694292143                 1
    0.01719335385                 1
    0.01744378626                 1
    0.01769421867                 1
    0.01794465109                 1
     0.0181950835                 1
    0.01844551591                 1
    0.01869594833                 1
    0.01894638074                 1
    0.01919681315                 1
    0.01944724557                 1
    0.01969767798                 1
    0.01994811039                 1
    0.02019854281                 1
    0.02044897522                 1
    0.02069940763                 1
    0.02094984005                 1
    0.02120027246                 1
    0.02145070487                 1
    0.02170113729                 1
     0.0219515697                 1
    0.02220200211                 1
    0.02245243453                 1
    0.02270286694                 1
    0.02295329935                 1
    0.02320373177                 1
    0.02345416418                 1
    0.02370459659                 1
    0.02395502901                 1
    0.02420546142                 1
    0.02445589384                 1
    0.02470632625                 1
    0.02495675866                 1
    0.02520719108                 1
    0.02545762349                 1
     0.0257080559                 1
    0.02595848832                 1
    0.02620892073                 1
    0.02645935314                 1
    0.02670978556                 1
    0.02696021797                 1
    0.02721065038                 1
     0.0274610828                 1
    0.02771151521                 1
    0.02796194762                 1
    0.02821238004                 1
    0.02846281245                 1
    0.02871324486                 1
    0.02896367728                 1
    0.02921410969                 1
     0.0294645421                 1
    0.02971497452                 1
    0.02996540693                 1
    0.03021583934                 1
    0.03046627176                 1
    0.03071670417                 1
    0.03096713658                 1
      0.031217569                 1
    0.03146800141                 1
    0.03171843382                 1
    0.03196886624                 1
    0.03221929865                 1
    0.03246973106                 1
    0.03272016348                 1
    0.03297059589                 1
     0.0332210283                 1
    0.03347146072                 1
    0.03372189313                 1
    0.03397232554                 1
    0.03422275796                 1
    0.03447319037                 1
    0.03472362278                 1
     0.0349740552                 1
    0.03522448761                 1
    0.03547492002                 1
    0.03572535244                 1
    0.03597578485                 1
    0.03622621726                 1
    0.03647664968                 1
    0.03672708209                 1
     0.0369775145                 1
    0.03722794692                 1
    0.03747837933                 1
    0.03772881174                 1
    0.03797924416                 1
    0.03822967657                 1
    0.03848010898                 1
     0.0387305414                 1
    0.03898097381                 1
    0.03923140622                 1
    0.03948183864                 1
    0.03973227105                 1
    0.03998270346                 1
    0.04023313588                 1
    0.04048356829                 1
     0.0407340007                 1
    0.04098443312                 1
    0.04123486553                 1
    0.04148529795                 1
    0.04173573036                 1
    0.04198616277                 1
    0.04223659519                 1
     0.0424870276                 1
    0.04273746001                 1
    0.04298789243                 1
    0.04323832484                 1
    0.04348875725                 1
    0.04373918967                 1
    0.04398962208                 1
    0.04424005449                 1
    0.04449048691                 1
    0.04474091932                 1
    0.04499135173                 1
    0.04524178415                 1
    0.04549221656                 1
    0.04574264897                 1
    0.04599308139                 1
     0.0462435138                 1
    0.04649394621                 1
    0.04674437863                 1
    0.04699481104                 1
    0.04724524345                 1
    0.04749567587                 1
    0.04774610828                 1
    0.04799654069                 1
    0.04824697311                 1
    0.04849740552                 1
    0.04874783793                 1
    0.04899827035                 1
    0.04924870276                 1
    0.04949913517                 1
    0.04974956759                 1
             0.05                 1
          0.05025                 1
           0.0505                 1
          0.05075                 1
            0.051                 1
          0.05125                 1
           0.0515                 1
          0.05175                 1
            0.052                 1
          0.05225                 1
           0.0525                 1
          0.05275                 1
            0.053                 1
          0.05325                 1
           0.0535                 1
          0.05375                 1
            0.054                 1
          0.05425                 1
           0.0545                 1
          0.05475                 1
            0.055                 1
          0.05525                 1
           0.0555                 1
          0.05575                 1
            0.056                 1
          0.05625                 1
           0.0565                 1
          0.05675                 1
            0.057                 1
          0.05725                 1
           0.0575                 1
          0.05775                 1
            0.058                 1
          0.05825                 1
           0.0585                 1
          0.05875                 1
            0.059                 1
          0.05925                 1
           0.0595                 1
          0.05975                 1
             0.06                 1
          0.06025                 1
           0.0605                 1
          0.06075                 1
            0.061                 1
          0.06125                 1
           0.0615                 1
          0.06175                 1
            0.062                 1
          0.06225                 1
           0.0625                 1
          0.06275                 1
            0.063                 1
          0.06325                 1
           0.0635                 1
          0.06375                 1
            0.064                 1
          0.06425                 1
           0.0645                 1
          0.06475                 1
            0.065                 1
          0.06525                 1
           0.0655                 1
          0.06575                 1
            0.066                 1
          0.06625                 1
           0.0665                 1
          0.06675                 1
            0.067                 1
          0.06725                 1
           0.0675                 1
          0.06775                 1
            0.068                 1
          0.06825                 1
           0.0685                 1
          0.06875                 1
            0.069                 1
          0.06925                 1
           0.0695                 1
          0.06975                 1
             0.07                 1
          0.07025                 1
           0.0705                 1
          0.07075                 1
            0.071                 1
          0.07125                 1
           0.0715                 1
          0.07175                 1
            0.072                 1
          0.07225                 1
           0.0725                 1
          0.07275      0.9999999999
            0.073      0.9999999999
          0.07325      0.9999999999
           0.0735      0.9999999999
          0.07375      0.9999999999
            0.074      0.9999999999
          0.07425      0.9999999999
           0.0745      0.9999999999
          0.07475      0.9999999999
            0.075      0.9999999999
          0.07525      0.9999999999
           0.0755      0.9999999999
          0.07575      0.9999999999
            0.076      0.9999999998
          0.07625      0.9999999998
           0.0765      0.9999999998
          0.07675      0.9999999998
            0.077      0.9999999998
          0.07725      0.9999999998
           0.0775      0.9999999997
          0.07775      0.9999999997
    0.07799722222      0.9999999997
    0.07824444444      0.9999999997
    0.07849166667      0.9999999996
    0.07873607955      0.9999999996
    0.07898049242      0.9999999996
     0.0792249053      0.9999999995
    0.07946647617      0.9999999995
    0.07970804704      0.9999999994
     0.0799467759      0.9999999994
    0.08018550476      0.9999999993
    0.08042139161      0.9999999993
    0.08065727845      0.9999999992
    0.08089032329      0.9999999992
    0.08112336813      0.9999999991
    0.08135357096       0.999999999
    0.08158096643       0.999999999
    0.08180836191      0.9999999989
    0.08203295003      0.9999999988
    0.08225753816      0.9999999987
    0.08247931893      0.9999999986
    0.08269832744      0.9999999985
    0.08291733596      0.9999999984
    0.08313357221      0.9999999983
    0.08334980847      0.9999999982
    0.08356327246       0.999999998
    0.08377673645      0.9999999979
    0.08399020045      0.9999999978
    0.08420366444      0.9999999976
    0.08441428225      0.9999999974
    0.08462490006      0.9999999973
    0.08483551786      0.9999999971
    0.08504613567      0.9999999969
    0.08525382823      0.9999999967
    0.08546152079      0.9999999965
    0.08566921335      0.9999999962
    0.08587393888       0.999999996
     0.0860786644      0.9999999957
    0.08628338992      0.9999999954
    0.08648811545      0.9999999951
    0.08668978536      0.9999999948
    0.08689145528      0.9999999945
     0.0870931252      0.9999999941
    0.08729479512      0.9999999938
    0.08749331395      0.9999999934
    0.08769183277      0.9999999929
     0.0878903516      0.9999999925
    0.08808887043       0.999999992
    0.08828413484      0.9999999915
    0.08847939926       0.999999991
    0.08867466368      0.9999999904
    0.08886661854      0.9999999898
    0.08905857339      0.9999999892
    0.08925052824      0.9999999886
    0.08944248309      0.9999999878
    0.08963101018      0.9999999871
    0.08981953727      0.9999999863
    0.09000806436      0.9999999855
    0.09019659145      0.9999999846
    0.09038156142      0.9999999837
    0.09056653139      0.9999999828
    0.09075150136      0.9999999817
    0.09093647134      0.9999999807
    0.09112144131      0.9999999795
    0.09130263638      0.9999999783
    0.09148383146      0.9999999771
    0.09166502653      0.9999999758
    0.09184622161      0.9999999743
    0.09202741669      0.9999999729
    0.09220861176      0.9999999713
    0.09238568877      0.9999999696
    0.09256276577      0.9999999679
    0.09273984278      0.9999999661
    0.09291691978      0.9999999642
    0.09309399679      0.9999999621
    0.09327107379      0.9999999599
    0.09344361036      0.9999999577
    0.09361614693      0.9999999554
     0.0937886835      0.9999999529
    0.09396122007      0.9999999502
    0.09413375664      0.9999999475
    0.09430629321      0.9999999445
    0.09447375517      0.9999999415
    0.09464121714      0.9999999384
     0.0948086791      0.9999999351
    0.09497614107      0.9999999316
    0.09514360303      0.9999999279
      0.095311065       0.999999924
    0.09547852696      0.9999999199
    0.09564000814      0.9999999158
    0.09580148932      0.9999999115
     0.0959629705      0.9999999069
    0.09612445168      0.9999999021
    0.09628593286       0.999999897
    0.09644741404      0.9999998917
    0.09660889522      0.9999998862
     0.0967703764      0.9999998803
    0.09693185758      0.9999998742
    0.09709333876      0.9999998677
    0.09725481994      0.9999998609
    0.09741630112      0.9999998538
     0.0975777823      0.9999998463
    0.09773926348      0.9999998384
    0.09790074466      0.9999998301
    0.09806222584      0.9999998214
    0.09822370702      0.9999998122
     0.0983851882      0.9999998025
    0.09854666938      0.9999997923
    0.09870815056      0.9999997815
    0.09886963174      0.9999997702
    0.09903111292      0.9999997583
     0.0991925941      0.9999997457
    0.09935407528      0.9999997326
    0.09951555646      0.9999997187
    0.09967703764      0.9999997041
    0.09983851882      0.9999996887
              0.1      0.9999996725
     0.1001497006      0.9999996568
      0.100298953      0.9999996403
     0.1004477585      0.9999996231
     0.1005961185      0.9999996052
     0.1007435928      0.9999995865
     0.1008906269       0.999999567
      0.101037222      0.9999995466
     0.1011833795      0.9999995253
     0.1013295371       0.999999503
      0.101475257      0.9999994797
     0.1016205407      0.9999994554
     0.1017653894        0.99999943
     0.1019098044      0.9999994035
     0.1020542194      0.9999993757
     0.1021982007      0.9999993467
     0.1023417497      0.9999993165
     0.1024848675      0.9999992849
     0.1026275556       0.999999252
     0.1027698152      0.9999992176
     0.1029116476      0.9999991818
      0.103053054      0.9999991445
     0.1031936138      0.9999991056
     0.1033337526      0.9999990652
      0.103473472       0.999999023
     0.1036127729       0.999998979
     0.1037516568      0.9999989331
     0.1038901249      0.9999988853
     0.1040281785      0.9999988356
     0.1041658186      0.9999987837
     0.1043030467      0.9999987297
      0.104439864      0.9999986735
     0.1045762715      0.9999986151
     0.1047122707      0.9999985542
     0.1048478627      0.9999984909
     0.1049830488       0.999998425
     0.1051178301      0.9999983565
     0.1052522078      0.9999982853
     0.1053861833      0.9999982112
     0.1055197576      0.9999981343
     0.1056529319      0.9999980543
     0.1057857076      0.9999979713
     0.1059180857       0.999997885
     0.1060500675      0.9999977954
     0.1061816541      0.9999977023
     0.1063128468      0.9999976057
     0.1064436466      0.9999975055
     0.1065740549      0.9999974014
     0.1067036846      0.9999972938
     0.1068329273      0.9999971822
       0.10696217       0.999997066
     0.1070910258      0.9999969455
     0.1072194958      0.9999968205
     0.1073475811      0.9999966909
      0.107475283      0.9999965566
     0.1076029848      0.9999964169
     0.1077303032       0.999996272
     0.1078572392      0.9999961219
     0.1079837941      0.9999959664
     0.1081103489      0.9999958048
     0.1082365225      0.9999956373
     0.1083623161      0.9999954638
     0.1084881098      0.9999952835
     0.1086135233      0.9999950967
      0.108738558      0.9999949033
     0.1088632149      0.9999947031
     0.1089874952      0.9999944956
     0.1091114001      0.9999942809
     0.1092353049      0.9999940578
     0.1093588343      0.9999938267
     0.1094819894      0.9999935875
     0.1096051444       0.999993339
     0.1097279251      0.9999930817
     0.1098503326      0.9999928153
     0.1099723681      0.9999925395
     0.1100944036      0.9999922532
      0.110216067      0.9999919569
     0.1103373595      0.9999916505
     0.1104582821      0.9999913336
     0.1105788362       0.999991006
     0.1106990226      0.9999906675
     0.1108188427      0.9999903178
     0.1109386627      0.9999899556
     0.1110581164      0.9999895817
     0.1111772047      0.9999891958
     0.1112959288      0.9999887975
      0.111414653      0.9999883853
     0.1115330129        0.99998796
     0.1116513729      0.9999875199
     0.1117693687      0.9999870659
     0.1118870014      0.9999865975
     0.1120046341       0.999986113
     0.1121219038      0.9999856133
     0.1122388115      0.9999850979
     0.1123557192       0.999984565
     0.1124722649      0.9999840155
     0.1125884499      0.9999834492
     0.1127046348      0.9999828637
     0.1128204589      0.9999822597
      0.112936283      0.9999816361
     0.1130517463      0.9999809938
     0.1131672096      0.9999803295
     0.1132823121       0.999979645
     0.1133974146      0.9999789387
     0.1135121562      0.9999782107
     0.1136268978      0.9999774585
     0.1137412787      0.9999766849
     0.1138552998      0.9999758877
     0.1139693209      0.9999750651
     0.1140829824      0.9999742173
     0.1141966438      0.9999733425
     0.1143099456      0.9999724422
     0.1144228888      0.9999715155
      0.114535832      0.9999705585
     0.1146484167      0.9999695721
     0.1147610013       0.999968553
     0.1148732275      0.9999675055
     0.1149850962       0.999966428
     0.1150966086      0.9999653195
      0.115208121      0.9999641756
     0.1153192772      0.9999629988
     0.1154300782      0.9999617886
     0.1155408792      0.9999605401
     0.1156513251      0.9999592564
     0.1157614171       0.999957937
     0.1158711561      0.9999565809
     0.1159808951      0.9999551831
     0.1160902813      0.9999537476
     0.1161996675      0.9999522689
     0.1163087009      0.9999507509
     0.1164173825      0.9999491897
     0.1165260641      0.9999475851
      0.116634394      0.9999459398
     0.1167423733        0.99994425
     0.1168500031      0.9999425053
      0.116957633      0.9999407211
     0.1170649134      0.9999388936
     0.1171718455       0.999937021
     0.1172787776      0.9999350806
     0.1173853614      0.9999330898
      0.117491598      0.9999310452
     0.1175978346      0.9999289413
      0.117703724      0.9999267849
     0.1178096135      0.9999245681
     0.1179151557      0.9999223009
      0.118020698      0.9999199685
      0.118125893      0.9999175951
     0.1182307421        0.99991516
     0.1183355911      0.9999126517
     0.1184400941      0.9999100826
     0.1185442522      0.9999074727
     0.1186484103      0.9999048026
     0.1187522235      0.9999020716
     0.1188560367      0.9998992666
     0.1189595051      0.9998963804
     0.1190629734      0.9998934181
     0.1191660968      0.9998904028
     0.1192692202      0.9998873166
     0.1193723436       0.999884128
      0.119475121       0.999880865
     0.1195778984      0.9998775321
     0.1196803297      0.9998741117
      0.119782761      0.9998706178
     0.1198848463      0.9998670258
     0.1199869316      0.9998633362
     0.1200886708      0.9998595591
     0.1201900651      0.9998556955
     0.1202914594      0.9998517314
     0.1203925089       0.999847705
     0.1204932147      0.9998435715
     0.1205939204       0.999839327
     0.1206942825      0.9998350159
     0.1207946445      0.9998306051
     0.1208946628      0.9998260738
     0.1209946812      0.9998214219
     0.1210943558      0.9998166996
     0.1211940304      0.9998118629
     0.1212933614      0.9998069039
     0.1213926923      0.9998018418
     0.1214916795      0.9997966911
     0.1215906668      0.9997913802
     0.1216893103       0.999785985
     0.1217879538        0.99978048
     0.1218862536      0.9997748259
     0.1219845534      0.9997690271
     0.1220825095       0.999763111
     0.1221804656      0.9997570577
      0.122278078      0.9997508874
     0.1223756904      0.9997445766
     0.1224733028      0.9997381223
     0.1225705703      0.9997315454
     0.1226678378      0.9997248202
     0.1227647604      0.9997179685
     0.1228616829      0.9997109636
     0.1229586055      0.9997038025
     0.1230551819      0.9996965086
     0.1231517583      0.9996890537
     0.1232483347      0.9996814347
     0.1233449111      0.9996736487
     0.1234411389      0.9996657215
     0.1235373666      0.9996576223
     0.1236335944      0.9996493477
     0.1237294722      0.9996409254
     0.1238253501      0.9996323216
     0.1239212279      0.9996235329
     0.1240171057      0.9996145551
     0.1241126311       0.999605418
     0.1242081564      0.9995960842
     0.1243036818      0.9995865494
     0.1243992071      0.9995768085
     0.1244943774      0.9995668943
     0.1245895476      0.9995567661
     0.1246847178      0.9995464191
     0.1247798881      0.9995358486
     0.1248747005       0.999525091
      0.124969513      0.9995141025
     0.1250643254      0.9995028788
     0.1251587787      0.9994914594
      0.125253232      0.9994797983
     0.1253476854      0.9994678914
     0.1254417782      0.9994557816
      0.125535871      0.9994434199
     0.1256299638      0.9994308021
     0.1257236947       0.999417974
     0.1258174256      0.9994048833
     0.1259111565       0.999391517
     0.1260048874      0.9993778848
     0.1260982536      0.9993640239
     0.1261916198      0.9993498813
      0.126284986      0.9993354657
      0.126377986      0.9993208246
     0.1264709861      0.9993058953
       0.12656362      0.9992907331
     0.1266562539      0.9992752753
     0.1267485217      0.9992595797
     0.1268407895      0.9992435814
     0.1269330572      0.9992272754
     0.1270249574      0.9992107236
     0.1271168576      0.9991938564
     0.1272083902      0.9991767377
     0.1272999227      0.9991592949
     0.1273910877       0.999141594
     0.1274822527      0.9991235595
     0.1275734176       0.999105185
     0.1276642135      0.9990865407
     0.1277550094      0.9990675465
     0.1278454362      0.9990482754
      0.127935863      0.9990286447
     0.1280262898      0.9990086481
      0.128116346      0.9989883643
     0.1282064021      0.9989677085
     0.1282964583      0.9989466789
     0.1283861424      0.9989253608
     0.1284758264      0.9989036632
     0.1285655105      0.9988815606
     0.1286548209      0.9988591542
     0.1287441312      0.9988363724
     0.1288334416      0.9988131941
      0.128922752      0.9987896082
     0.1290116855      0.9987657092
     0.1291006191      0.9987413682
     0.1291895526      0.9987166188
     0.1292781077      0.9986915522
     0.1293666628      0.9986660537
     0.1294552179      0.9986401153
     0.1295433929      0.9986138438
     0.1296315679      0.9985870933
      0.129719743      0.9985599041
     0.1298075363      0.9985323765
     0.1298953296      0.9985043821
     0.1299831229      0.9984759119
     0.1300709163      0.9984469575
     0.1301583245      0.9984176419
     0.1302457328      0.9983878333
      0.130333141      0.9983575246
     0.1304205493      0.9983267082
     0.1305079576      0.9982953777
     0.1305949756      0.9982636668
     0.1306819937      0.9982314278
     0.1307690117      0.9981986513
     0.1308560298      0.9981653278
     0.1309430478      0.9981314476
     0.1310296703      0.9980971586
     0.1311162928      0.9980622986
     0.1312029153      0.9980268587
     0.1312891405      0.9979909971
     0.1313753657      0.9979545454
     0.1314615908      0.9979174967
     0.1315474168      0.9978800216
     0.1316332427      0.9978419445
     0.1317190687      0.9978032606
     0.1318048947      0.9977639117
     0.1318903177      0.9977241695
     0.1319757407      0.9976838205
     0.1320611638      0.9976427925
     0.1321465868      0.9976011697
     0.1322320098      0.9975588556
     0.1323170241      0.9975161383
     0.1324020384      0.9974727749
     0.1324870528       0.997428743
     0.1325720671       0.997383959
     0.1326570814      0.9973384515
      0.132741681      0.9972924475
     0.1328262806      0.9972457161
     0.1329108802      0.9971982473
     0.1329954798      0.9971500309
     0.1330796606      0.9971013022
     0.1331638414      0.9970518157
     0.1332480222      0.9970015644
      0.133332203      0.9969505372
     0.1334159607      0.9968989944
     0.1334997185      0.9968466782
     0.1335834763      0.9967935866
     0.1336668089      0.9967399856
     0.1337501415      0.9966856012
     0.1338334741      0.9966304273
     0.1339168067      0.9965744581
     0.1339997098      0.9965179824
     0.1340826128      0.9964607082
     0.1341655159      0.9964026301
     0.1342484189      0.9963437492
      0.134331322      0.9962840553
     0.1344142251      0.9962235306
     0.1344971281      0.9961621701
     0.1345795902      0.9961002966
     0.1346620523       0.996037572
     0.1347445144      0.9959739801
     0.1348269765      0.9959095017
     0.1349094385      0.9958441153
     0.1349919006      0.9957777975
     0.1350739121      0.9957108942
     0.1351559236      0.9956430214
      0.135237935      0.9955741569
     0.1353199465      0.9955042777
      0.135401958      0.9954333644
     0.1354839695      0.9953614006
     0.1355655202      0.9952887853
     0.1356470709      0.9952151059
     0.1357286217      0.9951405399
     0.1358101724      0.9950647792
     0.1358917231      0.9949878923
     0.1359732739      0.9949098981
     0.1360548246      0.9948308025
     0.1361363753      0.9947506031
     0.1362179261      0.9946692946
     0.1362989971      0.9945873624
     0.1363800681      0.9945043242
     0.1364611391      0.9944201715
     0.1365422101      0.9943348936
     0.1366232812      0.9942484779
     0.1367038638      0.9941614406
     0.1367844465      0.9940732483
     0.1368650291      0.9939838833
     0.1369456117      0.9938933155
     0.1370261944       0.993801505
      0.137106777      0.9937084266
     0.1371873597      0.9936140608
     0.1372679423      0.9935183919
      0.137348525      0.9934214058
     0.1374291076      0.9933230906
     0.1375096902       0.993223436
     0.1375902729      0.9931224331
     0.1376708555      0.9930200732
     0.1377514382      0.9929163478
     0.1378314941      0.9928119388
     0.1379115501      0.9927061615
     0.1379916061      0.9925990026
      0.138071662      0.9924904453
      0.138151718      0.9923804695
     0.1382317739      0.9922690508
     0.1383118299      0.9921561612
     0.1383918859      0.9920417691
     0.1384713935      0.9919266394
     0.1385509011      0.9918099597
     0.1386304087      0.9916917414
     0.1387099164      0.9915719827
      0.138789424      0.9914506801
     0.1388689316      0.9913278317
     0.1389484393      0.9912034377
      0.139027379      0.9910784048
     0.1391063187      0.9909518522