# Probe 0 (3.4 0.005 1.5)
# Probe 1 (4.4 0.005 1.5)
# Probe 2 (5.4 0.005 1.5)
# Probe 3 (5.9 0.005 1.5)
# Probe 4 (6.2 0.005 1.5)
# Probe 5 (6.7 0.005 1.5)
# Probe 6 (8.2 0.005 1.5)
#           Probe                 0                 1                 2                 3                 4                 5                 6
#            Time
    1.1999904e-06     0.09999960001     0.09999960001     0.09999960001     0.09999960001     0.09999960001     0.09999960001     0.09999960001
  2.639965056e-06     0.09999912003     0.09999912003     0.09999912003     0.09999912003     0.09999912003     0.09999912003     0.09999912003
  4.367944597e-06     0.09999854405     0.09999854405     0.09999854405     0.09999854405     0.09999854405     0.09999854405     0.09999854405
  6.441505713e-06      0.0999978529      0.0999978529      0.0999978529      0.0999978529      0.0999978529      0.0999978529      0.0999978529
   8.92973777e-06     0.09999702355     0.09999702355     0.09999702355     0.09999702355     0.09999702355     0.09999702355     0.09999702355
  1.191552707e-05     0.09999602839     0.09999602839     0.09999602839     0.09999602839     0.09999602839     0.09999602839     0.09999602839
  1.549838863e-05     0.09999483426     0.09999483426     0.09999483426     0.09999483426     0.09999483426     0.09999483426     0.09999483426
  1.979776087e-05     0.09999340138     0.09999340138     0.09999340138     0.09999340138     0.09999340138     0.09999340138     0.09999340138
  2.495674128e-05     0.09999168209     0.09999168209     0.09999168209     0.09999168209     0.09999168209     0.09999168209     0.09999168209
  3.114713435e-05     0.09998961917     0.09998961917     0.09998961917     0.09998961917     0.09998961917     0.09998961917     0.09998961917
  3.857523794e-05     0.09998714396     0.09998714396     0.09998714396     0.09998714396     0.09998714396     0.09998714396     0.09998714396
  4.748896225e-05     0.09998417393     0.09998417393     0.09998417393     0.09998417393     0.09998417393     0.09998417393     0.09998417393
  5.818543142e-05     0.09998061023     0.09998061023     0.09998061023     0.09998061023     0.09998061023     0.09998061023     0.09998061023
  7.102064463e-05     0.09997633445     0.09997633445     0.09997633445     0.09997633445     0.09997633445     0.09997633445     0.09997633445
  8.642131685e-05     0.09997120472     0.09997120472     0.09997120472     0.09997120472     0.09997120472     0.09997120472     0.09997120472
  0.0001049009832     0.09996505043     0.09996505041     0.09996505041     0.09996505041     0.09996505041     0.09996505041     0.09996505041
  0.0001270765827      0.0999576667     0.09995766666     0.09995766666     0.09995766666     0.09995766666     0.09995766666     0.09995766666
  0.0001536896689     0.09994880752     0.09994880742     0.09994880742     0.09994880742     0.09994880742     0.09994880742     0.09994880742
  0.0001856219625     0.09993818066     0.09993818041     0.09993818041     0.09993818041     0.09993818041     0.09993818041     0.09993818041
  0.0002239407148     0.09992543287     0.09992543223     0.09992543223     0.09992543223     0.09992543223     0.09992543223     0.09992543223
  0.0002699019884     0.09991014919     0.09991014756     0.09991014757     0.09991014757     0.09991014757     0.09991014757     0.09991014757
  0.0003250351347     0.09989182559      0.0998918215      0.0998918215      0.0998918215      0.0998918215      0.0998918215      0.0998918215
  0.0003911802278     0.09986985791     0.09986984769      0.0998698477      0.0998698477      0.0998698477      0.0998698477      0.0998698477
  0.0004705543394     0.09984352258     0.09984349723     0.09984349724     0.09984349724     0.09984349724     0.09984349724     0.09984349724
  0.0005658032734       0.099811965     0.09981190272     0.09981190273     0.09981190274     0.09981190274     0.09981190274     0.09981190274
  0.0006799700095     0.09977422118     0.09977407047     0.09977407047     0.09977407049     0.09977407049     0.09977407049     0.09977407049
  0.0008169700928     0.09972908307     0.09972872548     0.09972872544     0.09972872549     0.09972872549     0.09972872549     0.09972872549
  0.0009814618316     0.09967518227     0.09967435841     0.09967435827     0.09967435838     0.09967435838     0.09967435838     0.09967435838
   0.001179117227     0.09961095849     0.09960914153     0.09960914106     0.09960914131     0.09960914132     0.09960914132     0.09960914132
   0.001416111804     0.09953485609     0.09953110454     0.09953110306      0.0995311036     0.09953110362     0.09953110362     0.09953110362
   0.001666544217      0.0994554489     0.09944883299     0.09944882868     0.09944882974     0.09944882978     0.09944882978     0.09944882978
   0.001916976631     0.09937684233     0.09936675756     0.09936674637     0.09936674821     0.09936674829      0.0993667483      0.0993667483
   0.002167409044     0.09929860738     0.09928488255      0.0992848558     0.09928485873      0.0992848589     0.09928485892     0.09928485892
   0.002417841458       0.099220172     0.09920321519     0.09920315619     0.09920316054     0.09920316087     0.09920316091     0.09920316092
   0.002668273871     0.09914097804     0.09912176717     0.09912164676     0.09912165285     0.09912165344     0.09912165354     0.09912165354
   0.002918706284     0.09906062626     0.09904055526      0.0990403268     0.09904033488     0.09904033587     0.09904033607     0.09904033607
   0.003169138698      0.0989789673     0.09895960195     0.09895919638     0.09895920655     0.09895920812     0.09895920847     0.09895920849
   0.003419571111     0.09889611953     0.09887893175     0.09887825365     0.09887826561     0.09887826799     0.09887826861     0.09887826865
   0.003670003524     0.09881245508     0.09879857262     0.09879749914     0.09879751199     0.09879751541     0.09879751647     0.09879751655
   0.003920435938     0.09872845614     0.09871854897     0.09871693314     0.09871694494     0.09871694962     0.09871695131     0.09871695146
   0.004170868351     0.09864458734     0.09863887715     0.09863655646     0.09863656378     0.09863656982      0.0986365724     0.09863657267
   0.004421300765     0.09856121991     0.09855955946     0.09855637027     0.09855636799     0.09855637525     0.09855637902     0.09855637947
   0.004671733178     0.09847863985     0.09848057903     0.09847637717     0.09847635838     0.09847636633     0.09847637158     0.09847637234
   0.004922165591      0.0983970415     0.09840188944     0.09839657733     0.09839653258     0.09839654008     0.09839654701     0.09839654822
   0.005172598005     0.09831646814     0.09832341745     0.09831697525     0.09831689199     0.09831689713     0.09831690575     0.09831690759
   0.005423030418      0.0982367835     0.09824505992     0.09823757585     0.09823743714     0.09823743713     0.09823744704     0.09823744976
   0.005673462831     0.09815775674     0.09816669463     0.09815838598     0.09815816868     0.09815815993     0.09815817019     0.09815817404
   0.005923895245     0.09807917946     0.09808819769     0.09807941366     0.09807908759     0.09807906566     0.09807907451     0.09807907973
   0.006174327658     0.09800092663     0.09800946756     0.09800066801     0.09800019485     0.09800015472      0.0980001594     0.09800016616
   0.006424760072     0.09792296761     0.09793044961     0.09792215863     0.09792149231     0.09792142756     0.09792142434     0.09792143264
   0.006675192485     0.09784532778     0.09785115417     0.09784389456     0.09784298285      0.0978428845     0.09784286892     0.09784287849
   0.006925624898     0.09776805081     0.09777166259     0.09776588278     0.09776467032     0.09776452622     0.09776449292     0.09776450305
   0.007176057312     0.09769115543     0.09769212064     0.09768812617     0.09768655968      0.0976863539     0.09768629625     0.09768630564
   0.007426489725     0.09761463082     0.09761272209     0.09761062325     0.09760865867     0.09760837135     0.09760828088     0.09760828749
   0.007676922139     0.09753842719     0.09753366965     0.09753335855     0.09753096998     0.09753057774      0.0975304431     0.09753044413
   0.007927354552     0.09746248231     0.09745515647     0.09745631216     0.09745350216     0.09745297881     0.09745278503      0.0974527768
   0.008177786965     0.09738673096     0.09737732873     0.09737944742     0.09737625721      0.0973755751     0.09737530289     0.09737528072
   0.008428219379     0.09731109085     0.09730028277     0.09730273496     0.09729925184     0.09729838425     0.09729800964     0.09729796754
   0.008678651792     0.09723539816      0.0972240166     0.09722611614     0.09722247541      0.0972213999     0.09722089428      0.0972208243
   0.008929084205     0.09715947872     0.09714848024     0.09714955101     0.09714592941       0.097144632     0.09714396285     0.09714385445
   0.009179516619     0.09708318633     0.09707356639     0.09707300646     0.09706960589      0.0970680857     0.09706721791     0.09706705732
   0.009429949032     0.09700642634     0.09699912481     0.09699646877     0.09699349075     0.09699176447     0.09699066272     0.09699043229
   0.009680381446     0.09692920127     0.09692497171     0.09691994903     0.09691756382     0.09691566904     0.09691430111     0.09691397873
   0.009930813859     0.09685160992     0.09685089986      0.0968434842     0.09684179986      0.0968397964     0.09683813738     0.09683769604
    0.01018124627      0.0967738282     0.09677669302     0.09676713547      0.0967661709     0.09676413892     0.09676217605     0.09676158366
    0.01043167869     0.09669608747     0.09670214834     0.09669098148     0.09669064997     0.09668868378     0.09668642149     0.09668564106
     0.0106821111     0.09661864045     0.09662710293     0.09661510605     0.09661521516     0.09661341289     0.09661087733      0.0966098678
    0.01093254351      0.0965417303     0.09655146021     0.09653958169     0.09653985329     0.09653830374     0.09653554587      0.0965342635
    0.01118297593     0.09646556165     0.09647520884     0.09646445006     0.09646456292      0.0964633313     0.09646042733     0.09645882783
    0.01143340834     0.09639027915     0.09639844332     0.09638970875     0.09638935546     0.09638847084     0.09638551923      0.0963835605
    0.01168384075     0.09631593941     0.09632136031     0.09631530466      0.0963142536     0.09631370128     0.09631081571     0.09630846129
    0.01193427317     0.09624250638     0.09624422451     0.09624113502     0.09623928661      0.0962390082     0.09623630702     0.09623352996
    0.01218470558     0.09616985124     0.09616734982      0.0961670627     0.09616448643     0.09616438883     0.09616198228     0.09615876951
    0.01243513799     0.09609775935     0.09609104044     0.09609292818     0.09608986814     0.09608984005     0.09608781787     0.09608417409
    0.01268557041     0.09602598144     0.09601555974     0.09601859219     0.09601544074     0.09601537494     0.09601379645     0.09600974734
    0.01293600282     0.09595427214     0.09594107727     0.09594395488      0.0959411897      0.0959410078     0.09593989634     0.09593549009
    0.01318643523     0.09588243402     0.09586765069      0.0958689858     0.09586707947     0.09586675328     0.09586609621     0.09586140349
    0.01343686765     0.09581033677     0.09579522407     0.09579374147     0.09579305975     0.09579262176     0.09579237698     0.09578748903
    0.01368730006      0.0957379286     0.09572365277     0.09571836784     0.09571907554     0.09571861561     0.09571872335     0.09571374849
    0.01393773247       0.095665236     0.09565273942     0.09564308621     0.09564508046     0.09564472813     0.09564512507     0.09564018396
    0.01418816489     0.09559235627     0.09558226148     0.09556816533     0.09557105393     0.09557094614     0.09557157755     0.09556679774
     0.0144385973     0.09551943839     0.09551199566     0.09549387868     0.09549701022     0.09549725607     0.09549808201     0.09549359228
    0.01468902971     0.09544665271     0.09544172001      0.0954204555     0.09542301042     0.09542364995     0.09542464521     0.09542056995
    0.01493946213     0.09537414355      0.0953712404     0.09534803236     0.09534915906     0.09535013051     0.09535127893     0.09534773285
    0.01518989454     0.09530198178     0.09530041342     0.09527662329     0.09527559441     0.09527672283     0.09527799958     0.09527508251
    0.01544032695     0.09523013009     0.09522916651     0.09520610346     0.09520246757     0.09520347694     0.09520482824     0.09520261946
    0.01569075937     0.09515842422      0.0951575129      0.0951362314      0.0951299162     0.09513046571     0.09513179054     0.09513034277
    0.01594119178     0.09508660062     0.09508553993     0.09506669587     0.09505803925     0.09505777852     0.09505891582      0.0950582496
    0.01619162419     0.09501436828     0.09501334979     0.09499716491     0.09498687097     0.09498550763     0.09498623553     0.09498633465
    0.01644205661     0.09494149921     0.09494104409     0.09492734005     0.09491636644     0.09491373132     0.09491378575     0.09491458983
    0.01669248902     0.09486789967     0.09486920578     0.09485715811     0.09484640396     0.09484249771     0.09484160511     0.09484300403
    0.01694292143     0.09479363984     0.09479820205     0.09478656278     0.09477680264     0.09477181087     0.09476973141     0.09477156314
    0.01719335385     0.09471894705     0.09472750216     0.09471567834     0.09470734189     0.09470162266     0.09469819906     0.09470025043
    0.01744378626     0.09464417191     0.09465656846     0.09464476288     0.09463779981     0.09463183606     0.09462703415     0.09462904747
    0.01769421867     0.09456973033     0.09458524728     0.09457396998     0.09456798717      0.0945623068     0.09455624953     0.09455793543
    0.01794465109     0.09449603353     0.09451321646     0.09450329843     0.09449778817     0.09449286633     0.09448584009     0.09448689692
     0.0181950835     0.09442341919     0.09444029782     0.09443258258     0.09442718196     0.09442333898     0.09441577941     0.09441591794
    0.01844551591     0.09435210035     0.09436659942      0.0943615317     0.09435624609     0.09435357268     0.09434601895     0.09434498988
    0.01869594833     0.09428213762     0.09429248276     0.09428983224     0.09428513055     0.09428347061     0.09427648989     0.09427411126
    0.01894638074     0.09421343514     0.09421844791     0.09421727396      0.0942140089     0.09421301184     0.09420710777     0.09420328892
    0.01919681315     0.09414576029     0.09414501699     0.09414386958     0.09414302618     0.09414226227     0.09413778442     0.09413254339
    0.01944724557     0.09407876556     0.09407261313     0.09406988101     0.09407223112     0.09407134308     0.09406841906     0.09406188951
    0.01969767798     0.09401207626     0.09400152288     0.09399578425     0.09400158637     0.09400042687     0.09399893928     0.09399136408
    0.01994811039     0.09394535201     0.09393186181     0.09392213763     0.09393096553     0.09392967448     0.09392929513     0.09392100462
    0.02019854281     0.09387834746     0.09386359574     0.09384950649     0.09386020823     0.09385919719     0.09385947465     0.09385085118
    0.02044897522     0.09381093274     0.09379657212     0.09377837965     0.09378919436     0.09378902764     0.09378950895     0.09378094212
    0.02069940763     0.09374308243     0.09373055321     0.09370905411     0.09371792063     0.09371911273      0.0937194695     0.09371130935
    0.02094984005     0.09367483998     0.09366524823     0.09364155106     0.09364654756     0.09364933842     0.09364945626     0.09364197414
    0.02120027246     0.09360627014     0.09360030946     0.09357559338     0.09357538769     0.09357958073     0.09357957887     0.09357294452
    0.02145070487     0.09353742851     0.09353536159     0.09351067631     0.09350484235     0.09350976453     0.09350993493     0.09350421478
    0.02170113729     0.09346834021     0.09347004471     0.09344616267     0.09343530552      0.0934399091     0.09344059018     0.09343576617
     0.0219515697     0.09339900552     0.09340407061     0.09338137825      0.0933670474     0.09337014595     0.09337156556      0.0933675685
    0.02220200211     0.09332942176     0.09333727951     0.09331576118     0.09330011757     0.09330070336     0.09330283542     0.09329958214
    0.02245243453     0.09325960147     0.09326966158      0.0932489726     0.09323430941     0.09323184521      0.0932343408     0.09323176048
    0.02270286694     0.09318959279     0.09320131895     0.09318094876      0.0931692108     0.09316378069     0.09316601133     0.09316405316
    0.02295329935     0.09311949209     0.09313237929     0.09311188311     0.09310427406     0.09309659003     0.09309779093     0.09309641054
    0.02320373177     0.09304945012     0.09306303099     0.09304216295     0.09303893209      0.0930301917     0.09302965764     0.09302878884
    0.02345416418     0.09297966958     0.09299347545     0.09297226546     0.09297273096     0.09296434434     0.09296163281     0.09296115543
    0.02370459659     0.09291039027     0.09292389069     0.09290263554     0.09290543423     0.09289868603     0.09289377389     0.09289349337
    0.02395502901     0.09284186398      0.0928544245     0.09283358692     0.09283707155     0.09283281851     0.09282615138     0.09282580413
    0.02420546142     0.09277432277     0.09278522732     0.09276526037     0.09276791515     0.09276641027     0.09275882143     0.09275810819
    0.02445589384     0.09270793382     0.09271649677     0.09269763288     0.09269839575     0.09269928089      0.0926918028     0.09269044317
    0.02470632625     0.09264276347      0.0926484418     0.09263056038     0.09262899417     0.09263144369     0.09262506493     0.09262285976
    0.02495675866     0.09257874382      0.0925812267     0.09256384735      0.0925601346     0.09256309219     0.09255853171     0.09255541595
    0.02520719108     0.09251565286     0.09251495086     0.09249731913     0.09249209421     0.09249454337       0.092492102     0.09248817018
    0.02545762349     0.09245313735     0.09244963244     0.09243086992     0.09242496068     0.09242616128     0.09242567996     0.09242117376
     0.0257080559     0.09239077895     0.09238519445     0.09236447779     0.09235864154     0.09235826404     0.09235920056     0.09235446328
    0.02595848832     0.09232815088     0.09232147198     0.09229818945     0.09229291902     0.09229105547     0.09229264273      0.0922880544
    0.02620892073     0.09226487176     0.09225824352     0.09223208495     0.09222752792     0.09222458775     0.09222603174     0.09222193791
    0.02645935314     0.09220065559     0.09219526464     0.09216623596     0.09216223506     0.09215876883      0.0921594318     0.09215607896
    0.02670978556     0.09213535803     0.09213228654     0.09210067482      0.0920968965     0.09209340901     0.09209292429     0.09209042023
    0.02696021797     0.09206899413     0.09206908567     0.09203538335     0.09203147621       0.092028287     0.09202658834     0.09202488866
    0.02721065038     0.09200172991     0.09200546578     0.09197030202     0.09196602691     0.09196321461     0.09196048121     0.09195940544
     0.0274610828     0.09193384566     0.09194127718     0.09190535643     0.09190064757     0.09189808238     0.09189463046     0.09189389816
    0.02771151521     0.09186567849     0.09187643465     0.09184048486     0.09183543503     0.09183287665     0.09182903669      0.0918283135
    0.02796194762     0.09179756532     0.09181091415     0.09177565193     0.09177044459     0.09176766682     0.09176368334     0.09176262797
    0.02821238004     0.09172978763      0.0917447439     0.09171084641     0.09170567147     0.09170256833     0.09169855007     0.09169685457
    0.02846281245     0.09166254037     0.09167801977     0.09164606761     0.09164105747     0.09163769466     0.09163362485     0.09163104336
    0.02871324486     0.09159591943     0.09161089976     0.09158130572     0.09157651684     0.09157311469      0.0915689095     0.09156527531
    0.02896367728     0.09152992808     0.09154359207     0.09151652555     0.09151196846      0.0915088281      0.0915044164      0.0914996507
    0.02921410969     0.09146449795     0.09147633556     0.09145166438     0.09144736125     0.09144476486     0.09144015826     0.09143427374
     0.0294645421     0.09139951179     0.09140937648     0.09138664652     0.09138268411     0.09138080668      0.0913761356      0.0913692351
    0.02971497452     0.09133482717     0.09134294364     0.09132140907     0.09131795992       0.091316822      0.0913123263     0.09130459601
    0.02996540693     0.09127030069      0.0912772273     0.09125592921     0.09125322838     0.09125270249     0.09124868103     0.09124037722
    0.03021583934     0.09120581571     0.09121237074     0.09119025111     0.09118853283     0.09118839728     0.09118513363     0.09117656261
    0.03046627176     0.09114127844     0.09114842083     0.09112446025     0.09112387614     0.09112389408     0.09112158316     0.09111307528
    0.03071670417     0.09107666417     0.09108537568     0.09105871497     0.09105926224      0.0910592553     0.09105795351     0.09104983145
    0.03096713658     0.09101199751     0.09102319653     0.09099319017     0.09099467615      0.0909945669     0.09099418104     0.09098672619
      0.031217569     0.09094735117     0.09096178817     0.09092805409     0.09093010877     0.09092991958      0.0909302346     0.09092365726
    0.03146800141     0.09088282972     0.09090099767     0.09086344302     0.09086557336     0.09086538775     0.09086612219     0.09086054123
    0.03171843382     0.09081854824     0.09084063726     0.09079944703     0.09080111454     0.09080101901     0.09080189011     0.09079732627
    0.03196886624     0.09075460971     0.09078050901     0.09073610789     0.09073680593     0.09073683531     0.09073761475     0.09073399957
    0.03221929865     0.09069108532     0.09072042683     0.09067342759      0.0906727383     0.09067284328     0.09067338911     0.09067058805
    0.03246973106     0.09062800367     0.09066023386     0.09061138229     0.09060900352     0.09060904901     0.09060930741     0.09060715224
    0.03272016348     0.09056534842      0.0905998144     0.09054993284     0.09054567994     0.09054547044     0.09054545108     0.09054377472
    0.03297059589     0.09050306595     0.09053909947      0.0904890253     0.09048282299     0.09048214306     0.09048187851     0.09048054518
     0.0332210283     0.09044107862     0.09047806297     0.09042858268     0.09042046172     0.09041911709     0.09041862012     0.09041754359
    0.03347146072     0.09037930298     0.09041670898     0.09036849333     0.09035860025     0.09035644798     0.09035567899     0.09035482519
    0.03372189313     0.09031766681     0.09035505573     0.09030860206      0.0902972205     0.09029418366     0.09029303661     0.09029241032
    0.03397232554     0.09025612252     0.09029312748     0.09024870994     0.09023628284     0.09023235286     0.09023066232     0.09023028141
    0.03422275796     0.09019465209     0.09023095133     0.09018858755      0.0901757234      0.0901709569     0.09016852401     0.09016838773
    0.03447319037     0.09013325918     0.09016856092     0.09012800357     0.09011544956     0.09010996609     0.09010659759     0.09010665591
    0.03472362278     0.09007195276     0.09010601641     0.09006676595     0.09005533703     0.09004932038     0.09004487303     0.09004500432
     0.0349740552     0.09001072815     0.09004340333     0.09000476653     0.08999523287     0.08998893364     0.08998335536      0.0899833589
    0.03522448761     0.08994954753     0.08998083108      0.0899420168     0.08993496739     0.08992870016     0.08992206064     0.08992166686
    0.03547492002     0.08988832962     0.08991840922     0.08987866052     0.08987437573     0.08986850233     0.08986100765     0.08985990541
    0.03572535244     0.08982696274      0.0898562226     0.08981495401     0.08981332624     0.08980821975     0.08980020703     0.08979808382
    0.03597578485     0.08976534144     0.08979432043     0.08975121548     0.08975174978     0.08974774045     0.08973965063     0.08973623904
    0.03622621726     0.08970341017     0.08973271423     0.08968775661     0.08968966172     0.08968697484     0.08967930415     0.08967442664
    0.03647664968     0.08964123311     0.08967138402      0.0896248175     0.08962716896     0.08962587058     0.08961910542     0.08961270978
    0.03672708209     0.08957900788     0.08961030596     0.08956252417     0.08956445759     0.08956442466      0.0895589696     0.08955114815
     0.0369775145     0.08951699573     0.08954947961     0.08950087994     0.08950176227     0.08950268996     0.08949880097     0.08948978925
    0.03722794692     0.08945544464     0.08948894245      0.0894397926     0.08943932315     0.08944077291     0.08943850921     0.08942866357
    0.03747837933     0.08939449892     0.08942876671     0.08937912548     0.08937734056     0.08937882036     0.08937802704     0.08936778404
    0.03772881174     0.08933419306     0.08936904175     0.08931874949      0.0893159391      0.0893169975     0.08931732555     0.08930714854
    0.03797924416     0.08927440464     0.08930984523      0.0892585761     0.08925515012     0.08925546029     0.08925642327     0.08924674406
    0.03822967657     0.08921500594     0.08925121329     0.08919856459     0.08919491733     0.08919432817     0.08919538598     0.08918655105
    0.03848010898     0.08915590609     0.08919312399     0.08913870812     0.08913512162     0.08913366383     0.08913431721     0.08912654716
     0.0387305414     0.08909687433     0.08913549806     0.08907900931     0.08907561613     0.08907346517     0.08907334092     0.08906671005
    0.03898097381     0.08903764835     0.08907821197     0.08901945884     0.08901626013     0.08901367166     0.08901257973     0.08900701883
    0.03923140622       0.088977979     0.08902111737     0.08896002732     0.08895694267     0.08895418247     0.08895213344     0.08894745442
    0.03948183864     0.08891771384     0.08896406074     0.08890067231     0.08889759211     0.08889488115     0.08889206225     0.08888799956
    0.03973227105     0.08885683689     0.08890689773     0.08884135442     0.08883817304      0.0888356599     0.08883237799      0.0888286393
    0.03998270346     0.08879550709     0.08884950125     0.08878205307     0.08877867717     0.08877643766     0.08877304481     0.08876936182
    0.04023313588     0.08873390213     0.08879176796     0.08872277434     0.08871911476     0.08871716903     0.08871398876      0.0887101591
    0.04048356829     0.08867220984     0.08873362797     0.08866354845     0.08865951077     0.08865784404     0.08865511369     0.08865102727
     0.0407340007     0.08861083024     0.08867505863     0.08860441954     0.08859990566     0.08859848104     0.08859631975     0.08859196668
    0.04098443312     0.08854997741     0.08861609741     0.08854543292     0.08854035729     0.08853911668     0.08853752081     0.08853298135
    0.04123486553     0.08848969283     0.08855682504     0.08848662404     0.08848093898     0.08847979633     0.08847865754     0.08847407786
    0.04148529795     0.08842998355     0.08849733837     0.08842801146     0.08842173098     0.08842056694     0.08841970436      0.0884152638
    0.04173573036     0.08837054149     0.08843777085     0.08836959317     0.08836280614     0.08836147244     0.08836066996     0.08835654621
    0.04198616277     0.08831119411     0.08837827248     0.08831134508     0.08830421417     0.08830255089     0.08830159222     0.08829793044
    0.04223659519      0.0882517977     0.08831898557     0.08825322168      0.0882459698     0.08824383221      0.0882425291     0.08823941977
     0.0424870276     0.08819228251     0.08826002452     0.08819516084     0.08818804872     0.08818533635      0.0881835475     0.08818101574
    0.04273746001     0.08813262301     0.08820150897     0.08813709444     0.08813039225      0.0881270721     0.08812471207     0.08812271902
    0.04298789243     0.08807279445     0.08814359008     0.08807896461     0.08807291862     0.08806903691     0.08806607583     0.08806453014
    0.04323832484     0.08801276265     0.08808637324     0.08802074198     0.08801553752     0.08801121815     0.08800767396     0.08800644964
    0.04348875725     0.08795247282     0.08802989697     0.08796244116     0.08795816445      0.0879535953     0.08794952154     0.08794847745
    0.04373918967     0.08789190089     0.08797411933     0.08790412741     0.08790073283     0.08789614238     0.08789161551     0.08789061158
    0.04398962208        0.08783107     0.08791891676      0.0878459122     0.08784320315     0.08783882987     0.08783393989     0.08783284662
    0.04424005449      0.0877700655     0.08786410331     0.08778794348     0.08778556949     0.08778162591     0.08777647285      0.0877751727
    0.04449048691     0.08770902585     0.08780946211     0.08773038938     0.08772786325     0.08772449795     0.08771919331     0.08771757566
    0.04474091932      0.0876481168     0.08775479187     0.08767343494     0.08767015364      0.0876674163      0.0876620854     0.08766003868
    0.04499135173     0.08758750276     0.08769993879      0.0876172607     0.08761254355     0.08761036033     0.08760513935     0.08760254546
    0.04524178415       0.087527322     0.08764481816     0.08756196059     0.08755515925     0.08755332642       0.087548349     0.08754508406