# Probe 0 (0.4 0.005 1.4)
# Probe 1 (0.9 0.005 1.4)
# Probe 2 (1.4 0.005 1.4)
# Probe 3 (1.9 0.005 1.4)
# Probe 4 (2.4 0.005 1.4)
# Probe 5 (2.9 0.005 1.4)
# Probe 6 (3.4 0.005 1.4)
# Probe 7 (3.9 0.005 1.4)
# Probe 8 (4.4 0.005 1.4)
# Probe 9 (4.9 0.005 1.4)
# Probe 10 (5.4 0.005 1.4)
# Probe 11 (5.9 0.005 1.4)
# Probe 12 (6.4 0.005 1.4)
# Probe 13 (6.9 0.005 1.4)
# Probe 14 (7.4 0.005 1.4)
# Probe 15 (7.9 0.005 1.4)
# Probe 16 (8.4 0.005 1.4)
#           Probe                 0                 1                 2                 3                 4                 5                 6                 7                 8                 9                10                11                12                13                14                15                16
#            Time
    1.1999904e-06            293.15            293.15            293.15            293.15       293.1541597            293.15            293.15            293.15            293.15            293.15            293.15            293.15            293.15            293.15            293.15            293.15            293.15
  2.639965056e-06            293.15            293.15            293.15       293.1500001        293.159151            293.15            293.15            293.15       293.1499999            293.15            293.15            293.15            293.15            293.15            293.15            293.15            293.15
  4.367944597e-06            293.15            293.15            293.15       293.1500002       293.1651399            293.15            293.15            293.15       293.1499999            293.15            293.15            293.15            293.15            293.15            293.15            293.15            293.15
  6.441505713e-06            293.15            293.15            293.15       293.1500005       293.1723256       293.1500001            293.15            293.15       293.1499998       293.1499999            293.15            293.15            293.15            293.15            293.15            293.15            293.15
   8.92973777e-06            293.15            293.15            293.15        293.150001       293.1809473       293.1500003            293.15            293.15       293.1499998       293.1499999            293.15            293.15            293.15            293.15            293.15            293.15            293.15
  1.191552707e-05            293.15            293.15            293.15        293.150002       293.1912908       293.1500006            293.15            293.15       293.1499997       293.1499999            293.15            293.15            293.15            293.15            293.15            293.15            293.15
  1.549838863e-05            293.15            293.15            293.15       293.1500037       293.2036995       293.1500013            293.15            293.15       293.1499996       293.1499998            293.15            293.15            293.15            293.15            293.15            293.15            293.15
  1.979776087e-05            293.15            293.15            293.15       293.1500069       293.2185828       293.1500026            293.15            293.15       293.1499995       293.1499998            293.15            293.15            293.15            293.15            293.15            293.15            293.15
  2.495674128e-05            293.15            293.15            293.15       293.1500127       293.2364312       293.1500052            293.15            293.15       293.1499994       293.1499997            293.15            293.15            293.15            293.15            293.15            293.15            293.15
  3.114713435e-05            293.15            293.15            293.15       293.1500228       293.2578298       293.1500101            293.15            293.15       293.1499992       293.1499997            293.15            293.15            293.15            293.15            293.15            293.15            293.15
  3.857523794e-05            293.15            293.15            293.15       293.1500408       293.2834742       293.1500191            293.15            293.15        293.149999       293.1499996            293.15            293.15            293.15            293.15            293.15            293.15            293.15
  4.748896225e-05            293.15            293.15            293.15       293.1500722       293.3141895       293.1500356            293.15            293.15       293.1499988       293.1499995            293.15            293.15            293.15            293.15            293.15            293.15            293.15
  5.818543142e-05            293.15            293.15            293.15       293.1501273       293.3509448       293.1500654            293.15            293.15       293.1499986       293.1499994            293.15            293.15            293.15            293.15            293.15            293.15            293.15
  7.102064463e-05            293.15            293.15            293.15       293.1502234       293.3948672       293.1501188            293.15            293.15       293.1499982       293.1499992            293.15            293.15            293.15            293.15            293.15            293.15            293.15
  8.642131685e-05            293.15            293.15       293.1500001       293.1503906       293.4472489       293.1502139            293.15            293.15       293.1499979        293.149999            293.15            293.15            293.15            293.15            293.15            293.15            293.15
  0.0001049009832            293.15            293.15       293.1500002       293.1506809       293.5095435        293.150382       293.1500001            293.15       293.1499974       293.1499988            293.15            293.15            293.15            293.15            293.15            293.15            293.15
  0.0001270765827            293.15            293.15       293.1500004       293.1511837       293.5833227       293.1506775       293.1500002            293.15       293.1499969       293.1499986            293.15            293.15            293.15            293.15            293.15            293.15            293.15
  0.0001536896689            293.15            293.15       293.1500011        293.152052       293.6701759       293.1511944       293.1500004            293.15       293.1499962       293.1499983            293.15            293.15            293.15            293.15            293.15            293.15            293.15
  0.0001856219625            293.15            293.15       293.1500029       293.1535451       293.7714755       293.1520929       293.1500011            293.15       293.1499954       293.1499979            293.15            293.15            293.15            293.15            293.15            293.15            293.15
  0.0002239407148            293.15            293.15       293.1500074       293.1560991       293.8880464       293.1536454       293.1500028            293.15       293.1499945       293.1499974            293.15            293.15            293.15            293.15            293.15            293.15            293.15
  0.0002699019884            293.15            293.15       293.1500187       293.1604319        294.019405       293.1563051        293.150007            293.15       293.1499934       293.1499969            293.15            293.15            293.15            293.15            293.15            293.15            293.15
  0.0003250351347            293.15       293.1500001       293.1500466       293.1677005        294.162799       293.1608155       293.1500176            293.15        293.149992       293.1499962            293.15            293.15            293.15            293.15            293.15            293.15            293.15
  0.0003911802278            293.15       293.1500002       293.1501153       293.1796966       294.3114836       293.1683594        293.150044            293.15       293.1499904       293.1499953            293.15            293.15            293.15            293.15            293.15            293.15            293.15
  0.0004705543394            293.15       293.1500007       293.1502816       293.1990231         294.45239       293.1807352       293.1501086            293.15       293.1499885       293.1499943            293.15            293.15            293.15            293.15            293.15            293.15            293.15
  0.0005658032734            293.15       293.1500023       293.1506775        293.229051       294.5634059       293.2004756       293.1502654            293.15       293.1499862       293.1499928            293.15            293.15            293.15            293.15            293.15            293.15            293.15
  0.0006799700095            293.15       293.1500081       293.1515942       293.2731715       294.6117102       293.2306599       293.1506381       293.1500004       293.1499835        293.149991       293.1499999            293.15            293.15            293.15            293.15            293.15            293.15
  0.0008169700928            293.15       293.1500274       293.1536441       293.3328527       294.5565484       293.2741226       293.1515017       293.1500021       293.1499804       293.1499885       293.1499998            293.15            293.15            293.15            293.15            293.15            293.15
  0.0009814618316       293.1500003       293.1500902       293.1580076       293.4034071       294.3612683       293.3311309       293.1534292       293.1500101       293.1499768       293.1499852       293.1499996            293.15            293.15            293.15            293.15            293.15            293.15
   0.001179117227       293.1500013       293.1502852       293.1666627       293.4685367       294.0217111        293.395318       293.1574993       293.1500441        293.149973       293.1499808       293.1499991            293.15            293.15            293.15            293.15            293.15            293.15
   0.001416111804       293.1500067       293.1508513       293.1821248       293.4984152       293.6054689       293.4491485       293.1653886       293.1501749       293.1499703       293.1499749       293.1499981       293.1499999            293.15            293.15            293.15            293.15            293.15
   0.001666544217       293.1500259        293.152112       293.2031745       293.4697196        293.284883       293.4666164       293.1772311       293.1505401       293.1499738        293.149968       293.1499963       293.1499999            293.15            293.15            293.15            293.15            293.15
   0.001916976631       293.1500777       293.1543681       293.2260236       293.4004105       293.1152526       293.4433311       293.1916744       293.1513266       293.1499932       293.1499606       293.1499935       293.1499996            293.15            293.15            293.15            293.15            293.15
   0.002167409044       293.1501967       293.1578873       293.2464507       293.3194246       293.0551506       293.3905878       293.2067473       293.1527712       293.1500478       293.1499533       293.1499896       293.1499992            293.15            293.15            293.15            293.15            293.15
   0.002417841458       293.1504387       293.1627868       293.2603516       293.2490936       293.0552154       293.3262418       293.2199535       293.1551163       293.1501706       293.1499472       293.1499842       293.1499985            293.15            293.15            293.15            293.15            293.15
   0.002668273871       293.1508841       293.1689518       293.2650931        293.202461       293.0870845       293.2671013       293.2289457       293.1585451       293.1504121       293.1499451       293.1499772       293.1499974       293.1499999            293.15            293.15            293.15            293.15
   0.002918706284       293.1516373       293.1760011       293.2603058       293.1803688       293.1326486        293.222695       293.2321749       293.1631139       293.1508416       293.1499525       293.1499687       293.1499955       293.1499998            293.15            293.15            293.15            293.15
   0.003169138698       293.1528212       293.1833141       293.2477885       293.1767922       293.1800989       293.1951164       293.2292785       293.1686934       293.1515461       293.1499778       293.1499592       293.1499927       293.1499996            293.15            293.15            293.15            293.15
   0.003419571111       293.1545652       293.1901057       293.2306799        293.185876       293.2190266       293.1837196       293.2210523       293.1749473       293.1526234       293.1500343       293.1499498       293.1499887       293.1499992            293.15            293.15            293.15            293.15
   0.003670003524       293.1569875       293.1955501       293.2125053       293.2024164       293.2387128       293.1855311       293.2091539       293.1813434       293.1541698       293.1501419       293.1499427       293.1499832       293.1499985       293.1499999            293.15            293.15            293.15
   0.003920435938       293.1601724       293.1989344       293.1964356       293.2222446       293.2342016       293.1960195       293.1956506       293.1871983        293.156263       293.1503283       293.1499415       293.1499762       293.1499974       293.1499998            293.15            293.15            293.15
   0.004170868351       293.1641458       293.1997888       293.1845223        293.241319        293.209279        293.210183       293.1824644       293.1917705       293.1589418       293.1506295       293.1499516        293.149968       293.1499957       293.1499997            293.15            293.15            293.15
   0.004421300765       293.1688501       293.1979649       293.1774259       293.2564041       293.1736494        293.223535       293.1710897       293.1943893       293.1621833       293.1510909       293.1499794       293.1499592       293.1499932       293.1499994            293.15            293.15            293.15
   0.004671733178       293.1741239         293.19367       293.1749213       293.2657061       293.1368802       293.2326705       293.1625178       293.1945823       293.1658833       293.1517643       293.1500341       293.1499513       293.1499896       293.1499989       293.1499999            293.15            293.15
   0.004922165591       293.1796964       293.1874577       293.1760739        293.269345       293.1047985       293.2360199       293.1571068       293.1921778       293.1698411       293.1527037       293.1501279       293.1499466       293.1499849       293.1499982       293.1499999            293.15            293.15
   0.005172598005       293.1851942       293.1801922       293.1794225       293.2689843       293.0795989       293.2341078       293.1545636       293.1873679       293.1737582       293.1539597       293.1502771       293.1499484       293.1499791       293.1499971       293.1499998            293.15            293.15
   0.005423030418       293.1901744       293.1728685       293.1834553       293.2669623        293.059998       293.2289566       293.1541492       293.1807024       293.1772588       293.1555699       293.1505038       293.1499607       293.1499723       293.1499956       293.1499997            293.15            293.15
   0.005673462831       293.1941844       293.1663541       293.1871622       293.2654463       293.0434185       293.2230571       293.1550327       293.1730066       293.1799344       293.1575482       293.1508352       293.1499888       293.1499653       293.1499933       293.1499994            293.15            293.15
   0.005923895245       293.1968377        293.161289        293.190227       293.2657488       293.0271409       293.2183324       293.1565692        293.165239       293.1814094       293.1598715       293.1513031       293.1500384       293.1499592       293.1499904        293.149999       293.1499999            293.15
   0.006174327658       293.1978869       293.1580796       293.1928883       293.2681605       293.0098452       293.2156496        293.158436       293.1582913       293.1814147       293.1624683       293.1519426       293.1501171       293.1499559       293.1499867       293.1499984       293.1499999            293.15
   0.006424760072       293.1972728       293.1569124       293.1956733       293.2721673       292.9913121        293.214896       293.1606268       293.1528321       293.1798533        293.165211       293.1527898       293.1502354       293.1499578       293.1499823       293.1499975       293.1499998            293.15
   0.006675192485       293.1951364       293.1577908       293.1991312       293.2768926       292.9698089        293.215407       293.1633282       293.1492635        293.176838       293.1679162       293.1538769       293.1504066       293.1499681       293.1499776       293.1499963       293.1499996            293.15
   0.006925624898       293.1917904       293.1606026       293.2036374        293.281568       292.9487762       293.2164518       293.1667594       293.1477441       293.1726951       293.1703578       293.1552266       293.1506479       293.1499899        293.149973       293.1499946       293.1499994            293.15
   0.007176057312       293.1876964       293.1651627        293.209304       293.2858773       292.9297354       293.2175287       293.1710561       293.1482053       293.1679353       293.1722943       293.1568443       293.1509797       293.1500272       293.1499696       293.1499924        293.149999       293.1499999
   0.007426489725       293.1833809       293.1712189       293.2159904       293.2898709       292.9124047       293.2184553       293.1762067       293.1504186       293.1631831       293.1735069       293.1587106       293.1514256       293.1500847       293.1499687       293.1499897       293.1499985       293.1499999
   0.007676922139       293.1793156       293.1785256        293.223386       293.2937502       292.8951241       293.2192608       293.1820378       293.1541654       293.1590841       293.1738418       293.1607748       293.1520108       293.1501689       293.1499722       293.1499865       293.1499978       293.1499998
   0.007927354552        293.175926       293.1867809       293.2311063       293.2975367       292.8772463       293.2199454       293.1882717       293.1592302       293.1562275       293.1732493       293.1629512       293.1527608       293.1502887       293.1499821        293.149983       293.1499968       293.1499997
   0.008177786965       293.1736071       293.1956281       293.2387738       293.3011173       292.8589755       293.2203851       293.1945911       293.1653496       293.1550713       293.1718112       293.1651207       293.1536982       293.1504558        293.150001       293.1499797       293.1499955       293.1499995
   0.008428219379         293.17276       293.2045504       293.2459694       293.3038856       292.8393855       293.2201456       293.2005584       293.1721642       293.1558786       293.1697514       293.1671396       293.1548377       293.1506843       293.1500318       293.1499772       293.1499938       293.1499993
   0.008678651792       293.1737416       293.2129004       293.2522715       293.3054946        292.818536       293.2188279        293.205659       293.1792728       293.1587048       293.1674172       293.1688591       293.1561829       293.1509914       293.1500781       293.1499764       293.1499918       293.1499989
   0.008929084205       293.1767792       293.2199964        293.257275       293.3056799       292.7963727       293.2160882       293.2093944       293.1862203       293.1634066       293.1652467       293.1701487       293.1577218       293.1513966       293.1501449       293.1499787       293.1499894       293.1499983
   0.009179516619       293.1819944       293.2252083       293.2605777       293.3043597       292.7729749       293.2117503       293.2113271       293.1924905       293.1696598       293.1637089       293.1709235       293.1594226       293.1519211       293.1502388       293.1499858        293.149987       293.1499976
   0.009429949032       293.1891895       293.2281162       293.2618672       293.3016588       292.7486364       293.2058507       293.2112199       293.1975453       293.1769793       293.1632283       293.1711677       293.1612328       293.1525864       293.1503684       293.1499994       293.1499848       293.1499966
   0.009680381446       293.1978494       293.2285237       293.2610236       293.2978912       292.7238601       293.1986337       293.2090765        293.200897       293.1847443       293.1641133       293.1709484       293.1630805       293.1534119       293.1505443       293.1500215       293.1499833       293.1499954
   0.009930813859       293.2071853       293.2265076       293.2581846       293.2935239       292.6992746       293.1905273       293.2051576       293.2021828       293.1922323       293.1665053       293.1704153       293.1648807       293.1544122       293.1507794       293.1500547       293.1499832       293.1499939
    0.01018124627       293.2162097       293.2224903       293.2537569       293.2891308       292.6755733       293.1821122       293.1999668       293.2013137       293.1986752        293.170339       293.1697919       293.1665439       293.1555939       293.1510884       293.1501026       293.1499855       293.1499921
    0.01043167869       293.2238436       293.2171736       293.2483807       293.2853436       292.6534257       293.1740845       293.1942047       293.1984511       293.2033424       293.1753155       293.1693449       293.1679894       293.1569527       293.1514876       293.1501699       293.1499915       293.1499902
     0.0106821111       293.2290456       293.2114358       293.2428556       293.2827816       292.6332852       293.1671923       293.1886888       293.1940228       293.2056431       293.1809104       293.1693367       293.1691587       293.1584707       293.1519943       293.1502633       293.1500023       293.1499884
    0.01093254351       293.2309738       293.2062127       293.2380443       293.2819714       292.6154948       293.1621431       293.1842528       293.1886769        293.205222       293.1864252       293.1699725       293.1700249       293.1601143       293.1526253       293.1503907       293.1500197       293.1499869
    0.01118297593       293.2291202        293.202355       293.2347659       293.2832697       292.6003342       293.1594961       293.1816375       293.1831971       293.2020349       293.1910738       293.1713479       293.1706005        293.161834       293.1533952       293.1505618       293.1500455       293.1499863
    0.01143340834       293.2234677        293.200495       293.2336888        293.286817        292.587947       293.1595744         293.18139        293.178387       293.1964348       293.1940891       293.1734086       293.1709368       293.1635666       293.1543151       293.1507881       293.1500827       293.1499874
    0.01168384075       293.2145995       293.2009419       293.2352392        293.292521       292.5782131       293.1624068       293.1837855       293.1749465       293.1891243       293.1948775       293.1759397       293.1711142        293.165239       293.1553896       293.1510825       293.1501353        293.149991
    0.01193427317       293.2038462       293.2036282       293.2395035       293.3000893       292.5707795       293.1677365       293.1887702       293.1733653        293.181064       293.1931096        293.178572       293.1712247       293.1667752        293.156615       293.1514592       293.1502083       293.1499982
    0.01218470558        293.192775       293.2081779       293.2461978       293.3089638       292.5647674       293.1750326       293.1959486       293.1738545       293.1733467       293.1888022       293.1808276       293.1713482       293.1681037       293.1579766       293.1519331       293.1503079       293.1500102
    0.01243513799       293.1830679       293.2139773       293.2547307       293.3186985        292.559862       293.1836798       293.2046561        293.176319       293.1670416       293.1823517       293.1821972        293.171529       293.1691653        293.159448        293.152519       293.1504418       293.1500282
    0.01268557041       293.1764017       293.2202962       293.2642834       293.3287913       292.5555759       293.1929724       293.2140699       293.1803813       293.1630391       293.1745281       293.1822334       293.1717543       293.1699184       293.1609895       293.1532299       293.1506188       293.1500541
    0.01293600282       293.1740926       293.2264502       293.2739317       293.3387865        292.551426       293.2022272        293.223352        293.185529       293.1619294       293.1664234       293.1806452       293.1719444       293.1703413       293.1625482       293.1540758       293.1508491       293.1500911
    0.01318643523       293.1769145       293.2319524       293.2827825       293.3483344       292.5470298       293.2108652       293.2317722       293.1912598       293.1639381        293.159253        293.177376       293.1719574       293.1704305       293.1640605       293.1550612       293.1511443        293.150143
    0.01343686765       293.1849423       293.2366049       293.2901072       293.3572108       292.5421222       293.2184641       293.2388109       293.1971715       293.1689201       293.1541996        293.172657       293.1716162       293.1701974       293.1654548       293.1561838       293.1515164       293.1502146
    0.01368730006       293.1974455       293.2405322       293.2954543       293.3653039       292.5365428       293.2247716       293.2442282       293.2030014       293.1764387       293.1522126        293.167007       293.1707386       293.1696619       293.1666573       293.1574309       293.1519781       293.1503118
    0.01393773247       293.2132652       293.2441442       293.2987169       293.3725671       292.5300751       293.2296905       293.2480849       293.2086756       293.1858631       293.1538302       293.1611934       293.1691981       293.1688456       293.1675965       293.1587788       293.1525411       293.1504415
    0.01418816489       293.2307649        293.248034       293.3001445       293.3789159       292.5219005       293.2332249       293.2507113       293.2142786        293.196411       293.1590721       293.1561391       293.1669471       293.1677672        293.168209       293.1601903       293.1532156       293.1506117
     0.0144385973       293.2481372       293.2528301       293.3002883       293.3838212        292.507192       293.2353268       293.2526303       293.2199993       293.2072068       293.1673998       293.1527821        293.164079       293.1664415       293.1684453       293.1616148       293.1540082       293.1508318
    0.01468902971       293.2637757       293.2590019        293.299884       293.3809278       292.4114359       293.2344897       293.2544412       293.2260419       293.2173898       293.1778516       293.1519013       293.1608361       293.1648846       293.1682733       293.1629889       293.1549205       293.1511122
    0.01493946213       293.2765543        293.266713       293.2995311       293.3523271         292.09591       293.2245583        293.256615       293.2325228       293.2262192       293.1891865       293.1539913       293.1576119        293.163125       293.1676824        293.164239       293.1559469        293.151464
    0.01518989454       293.2859421       293.2757196       293.2994135       293.3063785       291.9291378       293.2006421       293.2593091       293.2393755       293.2331737       293.2001328       293.1591118       293.1549122       293.1612126       293.1666861       293.1652858       293.1570732       293.1518984
    0.01544032695       293.2919724        293.285378       293.2991186       293.2561678         291.93531        293.164076       293.2622303       293.2462893       293.2380203       293.2095967       293.1668774       293.1532802       293.1592298        293.165323       293.1660505       293.1582742       293.1524261
    0.01569075937       293.2950805       293.2947904       293.2977177       293.2160604       292.0332915       293.1228155       293.2646241        293.252692       293.2408529       293.2168586       293.1764648       293.1532064       293.1573108       293.1636574       293.1664622       293.1595127       293.1530557
    0.01594119178       293.2959007       293.3028797        293.294158       293.1950679       292.1452198       293.0875639       293.2654447       293.2578867       293.2419444       293.2215527       293.1868005       293.1550458       293.1556336       293.1617787       293.1664655       293.1607397       293.1537931
    0.01619162419       293.2950879       293.3085761       293.2878202       293.1948026       292.2289367       293.0666157       293.2636828       293.2610971       293.2416711       293.2237239       293.1967051       293.1589314       293.1544209       293.1597998       293.1660278       293.1618949       293.1546389
    0.01644205661       293.2931851       293.3110217       293.2789247       293.2100852       292.2798011       293.0623652       293.2587074       293.2616429       293.2403502       293.2236954       293.2051105       293.1647119       293.1539184       293.1578533       293.1651451       293.1629101       293.1555875