# Probe 0 (3.4 0.005 1.5)
# Probe 1 (4.4 0.005 1.5)
# Probe 2 (5.4 0.005 1.5)
# Probe 3 (5.9 0.005 1.5)
# Probe 4 (6.2 0.005 1.5)
# Probe 5 (6.7 0.005 1.5)
# Probe 6 (8.2 0.005 1.5)
#           Probe                 0                 1                 2                 3                 4                 5                 6
#            Time
    1.1999904e-06       2.693219245       3.107127163       3.261221765       3.296485199       3.310719082       3.326498432       3.345539119
  2.639965056e-06       2.693217498       3.107125148        3.26121965       3.296483061       3.310716934       3.326496274       3.345536949
  4.367944597e-06       2.693215402        3.10712273       3.261217111       3.296480495       3.310714358       3.326493685       3.345534345
  6.441505713e-06       2.693212886       3.107119828       3.261214065       3.296477416       3.310711265       3.326490578       3.345531221
   8.92973777e-06       2.693209868       3.107116345        3.26121041       3.296473721       3.310707555        3.32648685       3.345527471
  1.191552707e-05       2.693206246       3.107112167       3.261206025       3.296469288       3.310703103       3.326482377       3.345522972
  1.549838863e-05         2.6932019       3.107107153       3.261200762       3.296463969        3.31069776       3.326477009       3.345517573
  1.979776087e-05       2.693196685       3.107101137       3.261194448       3.296457586        3.31069135       3.326470568       3.345511096
  2.495674128e-05       2.693190428       3.107093918       3.261186871       3.296449927       3.310683658       3.326462839       3.345503323
  3.114713435e-05        2.69318292       3.107085256       3.261177779       3.296440738       3.310674429       3.326453566       3.345493996
  3.857523794e-05       2.693173912       3.107074863       3.261166871       3.296429711       3.310663355        3.32644244       3.345482806
  4.748896225e-05       2.693163103       3.107062393       3.261153782       3.296416481       3.310650068       3.326429089       3.345469379
  5.818543142e-05       2.693150133        3.10704743       3.261138077       3.296400606       3.310634124       3.326413069       3.345453268
  7.102064463e-05       2.693134571       3.107029477       3.261119234       3.296381559       3.310614995       3.326393849       3.345433937
  8.642131685e-05       2.693115902       3.107007939       3.261096627       3.296358708       3.310592045        3.32637079       3.345410746
  0.0001049009832       2.693093504       3.106982098       3.261069505       3.296331293       3.310564511       3.326343125       3.345382923
  0.0001270765827       2.693066632       3.106951096       3.261036965       3.296298401       3.310531477       3.326309933       3.345349542
  0.0001536896689       2.693034389       3.106913898       3.260997923       3.296258936       3.310491842       3.326270109        3.34530949
  0.0001856219625       2.692995713       3.106869278        3.26095109       3.296211597       3.310444298       3.326222339       3.345261446
  0.0002239407148       2.692949319       3.106815751       3.260894909       3.296154808       3.310387265       3.326165033       3.345203812
  0.0002699019884       2.692893695       3.106751575       3.260827549       3.296086721       3.310318883       3.326096326       3.345134711
  0.0003250351347       2.692827007       3.106674628       3.260746787       3.296005085       3.310236895       3.326013947       3.345051861
  0.0003911802278       2.692747056       3.106582365       3.260649948       3.295907199       3.310138587        3.32591517       3.344952519
  0.0004705543394       2.692651207       3.106471726       3.260533822       3.295789817       3.310020698        3.32579672        3.34483339
  0.0005658032734       2.692536348       3.106339069       3.260394586       3.295649075       3.309879348       3.325654696       3.344690554
  0.0006799700095       2.692398965       3.106180221        3.26022786       3.295480546       3.309710092       3.325484633       3.344519517
  0.0008169700928        2.69223465       3.105989828       3.260028025       3.295278551       3.309507224       3.325280798       3.344314516
  0.0009814618316       2.692038404       3.105761555       3.259788429       3.295036365       3.309263992       3.325036407       3.344068726
   0.001179117227       2.691804518       3.105487725       3.259501018       3.294745847       3.308972219       3.324743244       3.343773884
   0.001416111804       2.691527303       3.105160067       3.259157106       3.294398217       3.308623089       3.324392449       3.343421082
   0.001666544217       2.691238009       3.104814629       3.258794524       3.294031717       3.308255006       3.324022612       3.343049128
   0.001916976631       2.690951651       3.104470015       3.258432788       3.293666073       3.307887784        3.32365364       3.342678043
   0.002167409044       2.690666733       3.104126241       3.258071897       3.293301285       3.307521421       3.323285531       3.342307828
   0.002417841458       2.690381227       3.103783339       3.257711848       3.292937349       3.307155914       3.322918282       3.341938477
   0.002668273871       2.690093121       3.103441356       3.257352637       3.292574262        3.30679126       3.322551891       3.341569988
   0.002918706284       2.689800934       3.103100362       3.256994261       3.292212019       3.306427456       3.322186352       3.341202357
   0.003169138698        2.68950406       3.102760451       3.256636721       3.291850622         3.3060645       3.321821668       3.340835586
   0.003419571111       2.689202857       3.102421725       3.256280007       3.291490059       3.305702384       3.321457827       3.340469662
   0.003670003524        2.68889862         3.1020843       3.255924123       3.291130331       3.305341108        3.32109483       3.340104588
   0.003920435938       2.688593061       3.101748279        3.25556907       3.290771434       3.304980666       3.320732674       3.339740359
   0.004170868351       2.688287847       3.101413728        3.25521485       3.290413365       3.304621057       3.320371355       3.339376972
   0.004421300765       2.687984334       3.101080659       3.254861471       3.290056121       3.304262277        3.32001087       3.339014424
   0.004671733178       2.687683601       3.100749001       3.254508942       3.289699707       3.303904327        3.31965122       3.338652718
   0.004922165591       2.687386397       3.100418561       3.254157264       3.289344112       3.303547194       3.319292393       3.338291839
   0.005172598005       2.687092916       3.100089033       3.253806458       3.288989341       3.303190881        3.31893439       3.337931789
   0.005423030418       2.686802691       3.099759988       3.253456544       3.288635398       3.302835387       3.318577207       3.337572566
   0.005673462831       2.686514893       3.099430914       3.253107553       3.288282285        3.30248071       3.318220842       3.337214166
   0.005923895245       2.686228782       3.099101295        3.25275952       3.287930007       3.302126852       3.317865291       3.336856586
   0.006174327658       2.685943894       3.098770703       3.252412485       3.287578568       3.301773814       3.317510551       3.336499823
   0.006424760072       2.685660113        3.09843891       3.252066489       3.287227976       3.301421599       3.317156622       3.336143874
   0.006675192485       2.685377556       3.098105956       3.251721572       3.286878243       3.301070206       3.316803499       3.335788736
   0.006925624898       2.685096387       3.097772178       3.251377764       3.286529387       3.300719641       3.316451183       3.335434406
   0.007176057312       2.684816657       3.097438185       3.251035078        3.28618143       3.300369907       3.316099673       3.335080881
   0.007426489725        2.68453828       3.097104784       3.250693507       3.285834406       3.300021022       3.315748979       3.334728166
   0.007676922139       2.684261025       3.096772823       3.250352982       3.285488327       3.299672982       3.315399082       3.334376242
   0.007927354552       2.683984626        3.09644311       3.250013415        3.28514323       3.299325812       3.315049993       3.334025113
   0.008177786965        2.68370884       3.096116257       3.249674646       3.284799124       3.298979516       3.314701695       3.333674759
   0.008428219379       2.683433324       3.095792667       3.249336544       3.284456084        3.29863417       3.314354246       3.333325231
   0.008678651792       2.683157482       3.095472338       3.248998852       3.284114061       3.298289748       3.314007596       3.332976472
   0.008929084205       2.682880742       3.095155067       3.248661393       3.283773062       3.297946292       3.313661773       3.332628496
   0.009179516619       2.682602666       3.094840415       3.248324024        3.28343305       3.297603827       3.313316788       3.332281301
   0.009429949032       2.682323038       3.094527761       3.247986685       3.283093964       3.297262366       3.312972655       3.331934885
   0.009680381446       2.682041909       3.094216339       3.247649424       3.282755713       3.296921913       3.312629392       3.331589243
   0.009930813859       2.681759626       3.093905277       3.247312405       3.282418184       3.296582454       3.312287018       3.331244374
    0.01018124627       2.681476746       3.093593658       3.246975896       3.282081254       3.296243955       3.311945552       3.330900275
    0.01043167869       2.681194004       3.093280615       3.246640242       3.281744801       3.295906358       3.311605015       3.330556944
     0.0106821111       2.680912239       3.092965447       3.246305811       3.281408729       3.295569581       3.311265422       3.330214378
    0.01093254351       2.680632293       3.092647738       3.245972918        3.28107298       3.295233524       3.310926783       3.329872576
    0.01118297593       2.680354909       3.092327434       3.245641744       3.280737547       3.294898076         3.3105891       3.329531536
    0.01143340834       2.680080624       3.092004938       3.245312276        3.28040248       3.294563124        3.31025236       3.329191257
    0.01168384075        2.67980971       3.091681093       3.244984279       3.280067881       3.294228576       3.309916536       3.328851739
    0.01193427317       2.679542096       3.091357026       3.244657307       3.279733878       3.293894367       3.309581586       3.328512979
    0.01218470558       2.679277364       3.091034073       3.244330765       3.279400613       3.293560486       3.309247459       3.328174991
    0.01243513799       2.679014748       3.090713523       3.244003959       3.279068151       3.293226917       3.308914049        3.32783775
    0.01268557041       2.678753326       3.090396485       3.243676288       3.278736535       3.292893719       3.308581279       3.327501271
    0.01293600282       2.678492178       3.090083664       3.243347318         3.2784057       3.292560957        3.30824905       3.327165559
    0.01318643523       2.678230564       3.089775286       3.243016913       3.278075493       3.292228696       3.307917267       3.326830617
    0.01343686765       2.677967996       3.089471095       3.242685311       3.277745694       3.291896982       3.307585845       3.326496454
    0.01368730006        2.67770428        3.08917047       3.242353134       3.277416065       3.291565828       3.307254715       3.326163076
    0.01393773247       2.677439518       3.088872574       3.242021334       3.277086402       3.291235207       3.306923831       3.325830494
    0.01418816489       2.677174065       3.088576477       3.241691074       3.276756612       3.290905063       3.306593173       3.325498717
     0.0144385973       2.676908461       3.088281254       3.241363551       3.276426753       3.290575337       3.306262749       3.325167757
    0.01468902971       2.676643319       3.087985996       3.241039788       3.276097089       3.290245995       3.305932588       3.324837624
    0.01493946213        2.67637916       3.087689911       3.240720416       3.275768073       3.289917049       3.305602747       3.324508328
    0.01518989454       2.676116246       3.087392409        3.24040554       3.275440309       3.289588608       3.305273299       3.324179874
    0.01544032695       2.675854457       3.087093177       3.240094653       3.275114466       3.289260887       3.304944341       3.323852266
    0.01569075937       2.675593219       3.086792234       3.239786716       3.274791158       3.288934206       3.304615988       3.323525499
    0.01594119178       2.675331591       3.086489892       3.239480361        3.27447084       3.288608958       3.304288373       3.323199559
    0.01619162419       2.675068525       3.086186546       3.239174098       3.274153684       3.288285551       3.303961634       3.322874423
    0.01644205661       2.674803185       3.085882599       3.238866559       3.273839516       3.287964339       3.303635931       3.322550053
    0.01669248902       2.674535211       3.085578393       3.238556741       3.273527805       3.287645544       3.303311435         3.3222264
    0.01694292143       2.674264835       3.085276622       3.238244966       3.273217757       3.287329199       3.302988309         3.3219034
    0.01719335385       2.673992873        3.08497833       3.237931352       3.272908382       3.287015105       3.302666706       3.321580976
    0.01744378626       2.673720598       3.084681141       3.237617086       3.272598641        3.28670284       3.302346741       3.321259045
    0.01769421867       2.673449528        3.08438276       3.237303548        3.27228762       3.286391765       3.302028477       3.320937524
    0.01794465109       2.673181146       3.084082466       3.236991339       3.271974731       3.286081122       3.301711897       3.320616333
     0.0181950835       2.672916632       3.083778946       3.236680086         3.2716598       3.285770098       3.301396891        3.32029541
    0.01844551591       2.672656697       3.083471732       3.236368533       3.271343138       3.285457955       3.301083248       3.319974717
    0.01869594833       2.672401534        3.08316168       3.236054924       3.271025462       3.285144198       3.300770666       3.319654248
    0.01894638074       2.672150824       3.082850663       3.235737661       3.270707677       3.284828678       3.300458766       3.319334035
    0.01919681315       2.671903794       3.082541037       3.235416036       3.270390623       3.284511657       3.300147142       3.319014171
    0.01944724557       2.671659266       3.082235059       3.235090683       3.270074736        3.28419369       3.299835325       3.318694725
    0.01969767798       2.671415973       3.081934533       3.234763718       3.269760027       3.283875621       3.299522959       3.318375861
    0.01994811039       2.671172783       3.081640453       3.234438006       3.269446022       3.283558293       3.299209787       3.318057751
    0.02019854281        2.67092887       3.081352926       3.234116432       3.269131973       3.283242372       3.298895724       3.317740575
    0.02044897522       2.670683771        3.08107123       3.233801412       3.268817172       3.282928175       3.298580892       3.317424504
    0.02069940763       2.670437346       3.080794045       3.233494432       3.268501304         3.2826156       3.298265617       3.317109682
    0.02094984005       2.670189658       3.080519746        3.23319566       3.268184722        3.28230418        3.29795038       3.316796202
    0.02120027246       2.669940813       3.080246686       3.232903866       3.267868501       3.281993275       3.297635735       3.316484098
    0.02145070487       2.669690844       3.079973372       3.232616846       3.267554209       3.281682344       3.297322208       3.316173344
    0.02170113729       2.669439673       3.079698537       3.232331914       3.267243525       3.281371182       3.297010184       3.315863855
     0.0219515697       2.669187173         3.0794212       3.232046289       3.266937789       3.281060056       3.296699841       3.315555496
    0.02220200211       2.668933262       3.079140733       3.231757583       3.266637566       3.280749708       3.296391111       3.315248091
    0.02245243453       2.668678008       3.078856947       3.231464241       3.266342371       3.280441192       3.296083722        3.31494143
    0.02270286694       2.668421703       3.078570096       3.231165763       3.266050757       3.280135521       3.295777287       3.314635288
    0.02295329935       2.668164908       3.078280623       3.230862647       3.265760641       3.279833305       3.295471433        3.31432944
    0.02320373177       2.667908436       3.077989228       3.230556229        3.26546967       3.279534522       3.295165908       3.314023688
    0.02345416418       2.667653282        3.07769676       3.230248338       3.265175739       3.279238473       3.294860655       3.313717879
    0.02370459659       2.667400495       3.077404088       3.229940884       3.264877471       3.278943863       3.294555822       3.313411934
    0.02395502901        2.66715103       3.077112002        3.22963544       3.264574523       3.278649063       3.294251689       3.313105851
    0.02420546142       2.666905604       3.076821162       3.229332943       3.264267627       3.278352526       3.293948546       3.312799718
    0.02445589384       2.666664587       3.076532279       3.229033636       3.263958364       3.278053194       3.293646582       3.312493698
    0.02470632625        2.66642794       3.076246219       3.228737168       3.263648757       3.277750762         3.2933458       3.312188016
    0.02495675866       2.666195185       3.075963642       3.228442817       3.263340795       3.277445728          3.293046       3.311882934
    0.02520719108       2.665965418       3.075684932       3.228149771       3.263036031        3.27713925       3.292746824       3.311578723
    0.02545762349         2.6657374       3.075410145       3.227857381       3.262735284       3.276832851       3.292447869       3.311275626
     0.0257080559       2.665509764       3.075138959       3.227565307       3.262438559       3.276528053       3.292148816       3.310973827
    0.02595848832       2.665281229       3.074870718       3.227273537       3.262145168       3.276226027       3.291849509       3.310673422
    0.02620892073       2.665050524       3.074604532       3.226982301       3.261854015       3.275927355       3.291549988       3.310374393
    0.02645935314       2.664816581       3.074339416       3.226691922       3.261563927       3.275631957       3.291250479       3.310076608
    0.02670978556       2.664578758       3.074074364        3.22640265       3.261273971       3.275339202       3.290951326       3.309779823
    0.02696021797       2.664336947       3.073808398       3.226114556       3.260983646       3.275048162       3.290652906       3.309483716
    0.02721065038       2.664091632       3.073540669       3.225827497       3.260692894       3.274757888       3.290355532       3.309187923
     0.0274610828       2.663843799       3.073270534       3.225541167       3.260401988       3.274467647       3.290059398       3.308892096
    0.02771151521       2.663594749       3.072997633       3.225255212       3.260111343       3.274177074       3.289764563       3.308595958
    0.02796194762       2.663345846       3.072721893       3.224969342       3.259821322       3.273886191       3.289470976       3.308299355
    0.02821238004       2.663098279       3.072443479       3.224683379       3.259532096       3.273595322       3.289178524       3.308002295
    0.02846281245       2.662852882       3.072162799       3.224397263       3.259243586       3.273304919       3.288887083       3.307704954
    0.02871324486       2.662610055       3.071880491       3.224110997       3.258955521       3.273015369       3.288596562       3.307407659
    0.02896367728       2.662369777       3.071597392       3.223824576       3.258667553       3.272726845       3.288306913        3.30711084
    0.02921410969       2.662131702       3.071314485       3.223537925       3.258379393       3.272439239       3.288018115       3.306814961
     0.0294645421       2.661895281       3.071032812       3.223250887       3.258090904       3.272152195       3.287730139       3.306520451
    0.02971497452       2.661659908       3.070753363       3.222963275       3.257802128       3.271865226       3.287442902       3.306227629
    0.02996540693       2.661425034       3.070476971       3.222674964       3.257513247       3.271577863        3.28715625       3.305936647
    0.03021583934       2.661190252       3.070204219       3.222385983       3.257224497       3.271289804       3.286869948        3.30564747
    0.03046627176       2.660955356       3.069935384       3.222096611         3.2569361       3.271001027        3.28658374       3.305359918
    0.03071670417       2.660720259       3.069670344       3.221807248       3.256648075       3.270711665       3.286297261        3.30507358
    0.03096713658       2.660485105       3.069408922        3.22151856       3.256360426        3.27042213       3.286010295       3.304788064
      0.031217569       2.660250139       3.069150677       3.221231251       3.256073065       3.270132856         3.2857227       3.304502935
    0.03146800141       2.660015683       3.068894949       3.220945976       3.255785929       3.269844213       3.285434479        3.30421781
    0.03171843382       2.659782081       3.068640951       3.220663252       3.255499065       3.269556424       3.285145791       3.303932418
    0.03196886624       2.659549638       3.068387855       3.220383397       3.255212673       3.269269551       3.284856934       3.303646634
    0.03221929865       2.659318574       3.068134868        3.22010652       3.254927102       3.268983543       3.284568292       3.303360492
    0.03246973106       2.659088977       3.067881301       3.219832556       3.254642787       3.268698323       3.284280272       3.303074172
    0.03272016348       2.658860799       3.067626621       3.219561308       3.254360173        3.26841388       3.283993236       3.302787962
    0.03297059589        2.65863387       3.067370503       3.219292482       3.254079627        3.26813033       3.283707446       3.302502209
     0.0332210283       2.658407952       3.067112859       3.219025675       3.253801377       3.267847918       3.283423033       3.302217255
    0.03347146072       2.658182798       3.066853802       3.218760348       3.253525484       3.267566971       3.283139998       3.301933373
    0.03372189313       2.657958208        3.06659356       3.218495812       3.253251841        3.26728781       3.282858242        3.30165072
    0.03397232554       2.657734071       3.066332399        3.21823125       3.252980194       3.267010661       3.282577615       3.301369306
    0.03422275796       2.657510346       3.066070573       3.217965787       3.252710164       3.266735586       3.282297974       3.301088997
    0.03447319037       2.657287017       3.065808289        3.21769859       3.252441275       3.266462448       3.282019229       3.300809545
    0.03472362278       2.657064037       3.065545767       3.217428995       3.252172969       3.266190928       3.281741373       3.300530629
     0.0349740552       2.656841287        3.06528322       3.217156613       3.251904643       3.265920571       3.281464469       3.300251922
    0.03522448761       2.656618553       3.065020829       3.216881406       3.251635683       3.265650851       3.281188626       3.299973149
    0.03547492002       2.656395563       3.064758723       3.216603701       3.251365525       3.265381234       3.280913944        3.29969414
    0.03572535244       2.656172061       3.064497026        3.21632416       3.251093725        3.26511123       3.280640465       3.299414855
    0.03597578485       2.655947898       3.064235913       3.216043693       3.250820028       3.264840428       3.280368128       3.299135387
    0.03622621726         2.6557231       3.063975617       3.215763354       3.250544423       3.264568534       3.280096747       3.298855938
    0.03647664968       2.655497895        3.06371641       3.215484207       3.250267168       3.264295385       3.279826019       3.298576782
    0.03672708209       2.655272689       3.063458565       3.215207184       3.249988773       3.264020976        3.27955556       3.298298212
     0.0369775145       2.655048011       3.063202305       3.214932952       3.249709951       3.263745457       3.279284964       3.298020493
    0.03722794692       2.654824402       3.062947764       3.214661803       3.249431528       3.263469139       3.279013868       3.297743829
    0.03747837933       2.654602308       3.062694966         3.2143936       3.249154339       3.263192472       3.278742015       3.297468334
    0.03772881174       2.654381964        3.06244386       3.214127808       3.248879109          3.262916       3.278469307       3.297194035
    0.03797924416       2.654163323       3.062194383       3.213863631       3.248606336       3.262640299       3.278195824       3.296920878
    0.03822967657        2.65394605       3.061946514       3.213600214       3.248336212       3.262365907       3.277921821       3.296648753
    0.03848010898       2.653729591        3.06170029       3.213336863       3.248068578       3.262093239       3.277647681       3.296377519
     0.0387305414       2.653513307       3.061455751       3.213073207       3.247802957        3.26182252       3.277373862       3.296107027
    0.03898097381       2.653296644       3.061212831       3.212809249       3.247538644       3.261553748       3.277100813       3.295837144
    0.03923140622       2.653079276       3.060971278       3.212545294       3.247274853       3.261286686       3.276828913       3.295567766
    0.03948183864        2.65286107       3.060730612       3.212281791        3.24701088        3.26102091       3.276558409       3.295298816
    0.03973227105        2.65264206       3.060490163       3.212019139       3.246746247       3.260755893       3.276289384       3.295030252
    0.03998270346       2.652422357       3.060249181       3.211757563       3.246480782       3.260491106       3.276021761       3.294762057
    0.04023313588       2.652202104       3.060006976       3.211497069       3.246214631       3.260226129        3.27575532       3.294494229
    0.04048356829       2.651981536       3.059763047       3.211237491       3.245948192       3.259960725       3.275489752       3.294226779
     0.0407340007       2.651761016       3.059517163       3.210978596       3.245681992       3.259694885       3.275224712       3.293959718
    0.04098443312       2.651540989       3.059269359       3.210720167       3.245416562       3.259428812       3.274959879       3.293693058
    0.04123486553       2.651321929        3.05901984        3.21046206       3.245152322       3.259162854       3.274695009       3.293426809
    0.04148529795       2.651104244       3.058768958       3.210204187       3.244889517       3.258897419        3.27442996       3.293160981
    0.04173573036       2.650888123       3.058517228       3.209946476       3.244628204       3.258632875       3.274164711       3.292895582
    0.04198616277        2.65067348       3.058265342       3.209688837       3.244368275       3.258369483       3.273899354        3.29263062
    0.04223659519       2.650459966       3.058014121       3.209431152       3.244109502       3.258107349       3.273634067       3.292366104
     0.0424870276       2.650247123       3.057764458       3.209173318       3.243851587        3.25784643       3.273369089       3.292102044
    0.04273746001       2.650034233       3.057517239       3.208915305       3.243594213       3.257586565       3.273104675       3.291838446
    0.04298789243        2.64982073       3.057273176       3.208657208       3.243337083       3.257327521       3.272841065       3.291575315
    0.04323832484        2.64960626       3.057032629       3.208399249       3.243079956       3.257069055       3.272578446       3.291312651
    0.04348875725       2.649390335       3.056795543       3.208141739       3.242822678       3.256810961       3.272316938       3.291050446
    0.04373918967       2.649172939       3.056561392       3.207884995       3.242565205       3.256553097       3.272056575       3.290788677
    0.04398962208       2.648954392       3.056329291       3.207629263       3.242307608       3.256295407       3.271797317       3.290527311
    0.04424005449       2.648734925       3.056098177       3.207374673       3.242050059        3.25603792       3.271539057       3.290266303
    0.04449048691        2.64851541       3.055867001       3.207121236       3.241792796       3.255780738        3.27128165       3.290005597
    0.04474091932       2.648296407        3.05563488       3.206868882       3.241536065       3.255524007       3.271024942       3.289745139
    0.04499135173       2.648079477       3.055401184       3.206617523       3.241280069       3.255267883       3.270768798       3.289484885
    0.04524178415       2.647864913        3.05516556        3.20636709       3.241024925       3.255012488       3.270513125       3.289224813