# Probe 0 (4.8 0.005 1.5)
#           Probe                 0
#            Time
    1.1999904e-06                 1
  2.639965056e-06                 1
  4.367944597e-06                 1
  6.441505713e-06                 1
   8.92973777e-06                 1
  1.191552707e-05                 1
  1.549838863e-05                 1
  1.979776087e-05                 1
  2.495674128e-05                 1
  3.114713435e-05                 1
  3.857523794e-05                 1
  4.748896225e-05                 1
  5.818543142e-05                 1
  7.102064463e-05                 1
  8.642131685e-05                 1
  0.0001049009832                 1
  0.0001270765827                 1
  0.0001536896689                 1
  0.0001856219625                 1
  0.0002239407148                 1
  0.0002699019884                 1
  0.0003250351347                 1
  0.0003911802278                 1
  0.0004705543394                 1
  0.0005658032734                 1
  0.0006799700095                 1
  0.0008169700928                 1
  0.0009814618316                 1
   0.001179117227                 1
   0.001416111804                 1
   0.001666544217                 1
   0.001916976631                 1
   0.002167409044                 1
   0.002417841458                 1
   0.002668273871                 1
   0.002918706284                 1
   0.003169138698                 1
   0.003419571111                 1
   0.003670003524                 1
   0.003920435938                 1
   0.004170868351                 1
   0.004421300765                 1
   0.004671733178                 1
   0.004922165591                 1
   0.005172598005                 1
   0.005423030418                 1
   0.005673462831                 1
   0.005923895245                 1
   0.006174327658                 1
   0.006424760072                 1
   0.006675192485                 1
   0.006925624898                 1
   0.007176057312                 1
   0.007426489725                 1
   0.007676922139                 1
   0.007927354552                 1
   0.008177786965                 1
   0.008428219379                 1
   0.008678651792                 1
   0.008929084205                 1
   0.009179516619                 1
   0.009429949032                 1
   0.009680381446                 1
   0.009930813859                 1
    0.01018124627                 1
    0.01043167869                 1
     0.0106821111                 1
    0.01093254351                 1
    0.01118297593                 1
    0.01143340834                 1
    0.01168384075                 1
    0.01193427317                 1
    0.01218470558                 1
    0.01243513799                 1
    0.01268557041                 1
    0.01293600282                 1
    0.01318643523                 1
    0.01343686765                 1
    0.01368730006                 1
    0.01393773247                 1
    0.01418816489                 1
     0.0144385973                 1
    0.01468902971                 1
    0.01493946213                 1
    0.01518989454                 1
    0.01544032695                 1
    0.01569075937                 1
    0.01594119178                 1
    0.01619162419                 1
    0.01644205661                 1
    0.01669248902                 1
    0.01694292143                 1
    0.01719335385                 1
    0.01744378626                 1
    0.01769421867                 1
    0.01794465109                 1
     0.0181950835                 1
    0.01844551591                 1
    0.01869594833                 1
    0.01894638074                 1
    0.01919681315                 1
    0.01944724557                 1
    0.01969767798                 1
    0.01994811039                 1
    0.02019854281                 1
    0.02044897522                 1
    0.02069940763                 1
    0.02094984005                 1
    0.02120027246                 1
    0.02145070487                 1
    0.02170113729                 1
     0.0219515697                 1
    0.02220200211                 1
    0.02245243453                 1
    0.02270286694                 1
    0.02295329935                 1
    0.02320373177                 1
    0.02345416418                 1
    0.02370459659                 1
    0.02395502901                 1
    0.02420546142                 1
    0.02445589384                 1
    0.02470632625                 1
    0.02495675866                 1
    0.02520719108                 1
    0.02545762349                 1
     0.0257080559                 1
    0.02595848832                 1
    0.02620892073                 1
    0.02645935314                 1
    0.02670978556                 1
    0.02696021797                 1
    0.02721065038                 1
     0.0274610828                 1
    0.02771151521                 1
    0.02796194762                 1
    0.02821238004                 1
    0.02846281245                 1
    0.02871324486                 1
    0.02896367728                 1
    0.02921410969                 1
     0.0294645421                 1
    0.02971497452                 1
    0.02996540693                 1
    0.03021583934                 1
    0.03046627176                 1
    0.03071670417                 1
    0.03096713658                 1
      0.031217569                 1
    0.03146800141                 1
    0.03171843382                 1
    0.03196886624                 1
    0.03221929865                 1
    0.03246973106                 1
    0.03272016348                 1
    0.03297059589                 1
     0.0332210283                 1
    0.03347146072                 1
    0.03372189313                 1
    0.03397232554                 1
    0.03422275796                 1
    0.03447319037                 1
    0.03472362278                 1
     0.0349740552                 1
    0.03522448761                 1
    0.03547492002                 1
    0.03572535244                 1
    0.03597578485                 1
    0.03622621726                 1
    0.03647664968                 1
    0.03672708209                 1
     0.0369775145                 1
    0.03722794692                 1
    0.03747837933                 1
    0.03772881174                 1
    0.03797924416                 1
    0.03822967657                 1
    0.03848010898                 1
     0.0387305414                 1
    0.03898097381                 1
    0.03923140622                 1
    0.03948183864                 1
    0.03973227105                 1
    0.03998270346                 1
    0.04023313588                 1
    0.04048356829                 1
     0.0407340007                 1
    0.04098443312                 1
    0.04123486553                 1
    0.04148529795                 1
    0.04173573036                 1
    0.04198616277                 1
    0.04223659519                 1
     0.0424870276                 1
    0.04273746001                 1
    0.04298789243                 1
    0.04323832484                 1
    0.04348875725                 1
    0.04373918967                 1
    0.04398962208                 1
    0.04424005449                 1
    0.04449048691                 1
    0.04474091932                 1
    0.04499135173                 1
    0.04524178415                 1
    0.04549221656                 1
    0.04574264897                 1
    0.04599308139                 1
     0.0462435138                 1
    0.04649394621                 1
    0.04674437863                 1
    0.04699481104                 1
    0.04724524345                 1
    0.04749567587                 1
    0.04774610828                 1
    0.04799654069                 1
    0.04824697311                 1
    0.04849740552                 1
    0.04874783793                 1
    0.04899827035                 1
    0.04924870276                 1
    0.04949913517                 1
    0.04974956759                 1
             0.05                 1
          0.05025                 1
           0.0505                 1
          0.05075                 1
            0.051                 1
          0.05125                 1
           0.0515                 1
          0.05175                 1
            0.052                 1
          0.05225                 1
           0.0525                 1
          0.05275                 1
            0.053                 1
          0.05325                 1
           0.0535                 1
          0.05375                 1
            0.054                 1
          0.05425                 1
           0.0545                 1
          0.05475                 1
            0.055                 1
          0.05525                 1
           0.0555                 1
          0.05575                 1
            0.056                 1
          0.05625                 1
           0.0565                 1
          0.05675                 1
            0.057                 1
          0.05725                 1
           0.0575                 1
          0.05775                 1
            0.058                 1
          0.05825                 1
           0.0585                 1
          0.05875                 1
            0.059                 1
          0.05925                 1
           0.0595                 1
          0.05975                 1
             0.06                 1
          0.06025                 1
           0.0605                 1
          0.06075                 1
            0.061                 1
          0.06125                 1
           0.0615                 1
          0.06175                 1
            0.062                 1
          0.06225                 1
           0.0625                 1
          0.06275                 1
            0.063                 1
          0.06325                 1
           0.0635                 1
          0.06375                 1
            0.064                 1
          0.06425                 1
           0.0645                 1
          0.06475                 1
            0.065                 1
          0.06525                 1
           0.0655                 1
          0.06575      0.9999999999
            0.066      0.9999999999
          0.06625      0.9999999999
           0.0665      0.9999999999
          0.06675      0.9999999999
            0.067      0.9999999999
          0.06725      0.9999999999
    0.06749810606      0.9999999999
    0.06774433253      0.9999999999
    0.06798869365      0.9999999999
    0.06823305476      0.9999999998
    0.06847555053      0.9999999998
    0.06871437212      0.9999999998
    0.06895138445      0.9999999998
    0.06918660123      0.9999999998
    0.06942003607      0.9999999998
    0.06965170247      0.9999999997
    0.06988161381      0.9999999997
     0.0701097834      0.9999999997
    0.07033622444      0.9999999996
    0.07056095001      0.9999999996
    0.07078397312      0.9999999996
    0.07100530665      0.9999999995
    0.07122496342      0.9999999995
    0.07144462019      0.9999999995
    0.07166260019      0.9999999994
    0.07187891622      0.9999999993
    0.07209358098      0.9999999993
    0.07230824574      0.9999999992
    0.07252125923      0.9999999992
    0.07273427273      0.9999999991
    0.07294563496       0.999999999
    0.07315535872      0.9999999989
    0.07336508248      0.9999999989
    0.07357316777      0.9999999988
     0.0737796274      0.9999999987
    0.07398608702      0.9999999985
    0.07419092098      0.9999999984
    0.07439414208      0.9999999983
    0.07459736317      0.9999999982
     0.0747989714       0.999999998
    0.07499897956      0.9999999979
    0.07519898773      0.9999999977
    0.07539739583      0.9999999975
    0.07559580392      0.9999999973
    0.07579261196      0.9999999971
    0.07598783283      0.9999999969
     0.0761830537      0.9999999967
    0.07637668741      0.9999999964
    0.07657032112      0.9999999961
    0.07676236767      0.9999999958
    0.07695441422      0.9999999955
     0.0771448736      0.9999999952
    0.07733375894      0.9999999948
    0.07752264429      0.9999999944
    0.07770995558       0.999999994
    0.07789726688      0.9999999936
    0.07808300413      0.9999999931
    0.07826874139      0.9999999926
     0.0784529046      0.9999999921
    0.07863706781      0.9999999916
    0.07881965697       0.999999991
    0.07900224613      0.9999999903
    0.07918326125      0.9999999897
    0.07936427637       0.999999989
    0.07954371745      0.9999999882
    0.07972315852      0.9999999874
    0.07990102555      0.9999999866
    0.08007889258      0.9999999857
    0.08025518557      0.9999999847
    0.08043147856      0.9999999837
     0.0806061975      0.9999999827
    0.08078091644      0.9999999816
    0.08095406134      0.9999999804
    0.08112720623      0.9999999791
    0.08129877708      0.9999999778
     0.0814687882      0.9999999764
    0.08163879932      0.9999999749
     0.0818072507      0.9999999733
    0.08197570208      0.9999999717
    0.08214259373      0.9999999699
    0.08230948538       0.999999968
    0.08247481729      0.9999999661
    0.08263860405       0.999999964
     0.0828023908      0.9999999619
     0.0829646324      0.9999999596
    0.08312687399      0.9999999572
    0.08328911559      0.9999999547
    0.08344979717       0.999999952
    0.08361047875      0.9999999493
    0.08376960032      0.9999999463
    0.08392872188      0.9999999433
    0.08408784345        0.99999994
    0.08424538955      0.9999999366
    0.08440293566      0.9999999331
    0.08456048176      0.9999999293
    0.08471802786      0.9999999253
    0.08487396636      0.9999999212
    0.08502990485      0.9999999168
    0.08518584334      0.9999999122
    0.08534178183      0.9999999074
    0.08549607886      0.9999999023
     0.0856503759       0.999999897
    0.08580303147      0.9999998915
    0.08595568705      0.9999998856
    0.08610834262      0.9999998795
     0.0862609982      0.9999998731
    0.08641197624      0.9999998664
    0.08656295428      0.9999998593
    0.08671393232      0.9999998519
    0.08686321398      0.9999998442
    0.08701249564      0.9999998361
     0.0871617773      0.9999998276
    0.08730934308      0.9999998187
    0.08745690886      0.9999998094
    0.08760447464      0.9999997997
    0.08775030435      0.9999997896
    0.08789613406       0.999999779
    0.08804196377       0.999999768
    0.08818603649      0.9999997565
    0.08833010922      0.9999997444
    0.08847418194      0.9999997318
    0.08861825467      0.9999997186
    0.08876052649      0.9999997049
     0.0889027983      0.9999996905
    0.08904507012      0.9999996755
    0.08918734194      0.9999996598
    0.08932776607      0.9999996435
     0.0894681902      0.9999996265
    0.08960861433      0.9999996087
    0.08974903846      0.9999995901
    0.08988756497      0.9999995708
    0.09002609147      0.9999995507
    0.09016461798      0.9999995297
    0.09030314449      0.9999995077
    0.09043971992      0.9999994851
    0.09057629535      0.9999994615
    0.09071287078      0.9999994367
    0.09084944621      0.9999994109
    0.09098602164       0.999999384
    0.09112055863      0.9999993562
    0.09125509562      0.9999993273
    0.09138963261      0.9999992971
     0.0915241696      0.9999992655
    0.09165870659      0.9999992326
    0.09179110807      0.9999991988
    0.09192350955      0.9999991635
    0.09205591104      0.9999991267
    0.09218831252      0.9999990884
      0.092320714      0.9999990484
    0.09245311549      0.9999990068
    0.09258323418      0.9999989641
    0.09271335288      0.9999989197
    0.09284347158      0.9999988734
    0.09297359028      0.9999988251
    0.09310370898      0.9999987749
    0.09323141807      0.9999987236
    0.09335912716      0.9999986702
    0.09348683626      0.9999986146
    0.09361454535      0.9999985567
    0.09374225444      0.9999984965
    0.09386996354      0.9999984338
    0.09399767263      0.9999983687
    0.09412272112      0.9999983024
     0.0942477696      0.9999982334
    0.09437281809      0.9999981618
    0.09449786658      0.9999980874
    0.09462291506      0.9999980102
    0.09474796355      0.9999979299
    0.09487010393      0.9999978486
    0.09499224432      0.9999977641
     0.0951143847      0.9999976764
    0.09523652508      0.9999975855
    0.09535866546      0.9999974911
    0.09548080585      0.9999973931
    0.09560294623      0.9999972915
    0.09572508661       0.999997186
    0.09584722699      0.9999970766
    0.09596587765      0.9999969663
    0.09608452831      0.9999968521
    0.09620317897      0.9999967337
    0.09632182962      0.9999966111
    0.09644048028       0.999996484
    0.09655913094      0.9999963524
    0.09667778159       0.999996216
    0.09679643225      0.9999960747
    0.09691508291      0.9999959282
    0.09703373357      0.9999957763
    0.09715238422      0.9999956189
    0.09727103488      0.9999954556
    0.09738968554      0.9999952862
     0.0975083362      0.9999951105
    0.09762698685      0.9999949282
    0.09774563751      0.9999947391
    0.09785835564      0.9999945529
    0.09797107376      0.9999943602
    0.09808379188      0.9999941607
    0.09819651001      0.9999939543
    0.09830922813      0.9999937407
    0.09842194626      0.9999935198
    0.09853466438      0.9999932914
    0.09864738251      0.9999930551
    0.09876010063      0.9999928109
    0.09887281876      0.9999925583
    0.09898553688      0.9999922971
      0.099098255      0.9999920271
    0.09921097313      0.9999917478
    0.09932369125       0.999991459
    0.09943640938      0.9999911603
     0.0995491275      0.9999908513
    0.09966184563      0.9999905318
    0.09977456375      0.9999902014
    0.09988728188      0.9999898597
              0.1      0.9999895064
     0.1001111111      0.9999891464
     0.1002219753      0.9999887752
     0.1003325931      0.9999883926
     0.1004429652      0.9999879982
     0.1005530919      0.9999875918
     0.1006632186       0.999987172
     0.1007731001      0.9999867395
     0.1008827369      0.9999862939
     0.1009918863      0.9999858357
     0.1011007933      0.9999853638
     0.1012094582      0.9999848777
     0.1013178816      0.9999843771
     0.1014260641      0.9999838615
     0.1015337668      0.9999833318
     0.1016412307      0.9999827867
     0.1017484564      0.9999822256
     0.1018554443      0.9999816482
      0.101962195      0.9999810542
      0.102068709      0.9999804433
     0.1021749868       0.999979815
     0.1022810289       0.999979169
      0.102386836      0.9999785049
     0.1024924084      0.9999778222
     0.1025977467      0.9999771204
     0.1027030851      0.9999763976
     0.1028081893      0.9999756547
       0.10291306      0.9999748911
     0.1030176977      0.9999741064
     0.1031221028      0.9999733001
     0.1032262759      0.9999724714
     0.1033302175        0.99997162
     0.1034339281      0.9999707451
     0.1035374083      0.9999698463
     0.1036408884      0.9999689208
     0.1037441381      0.9999679703
     0.1038471579      0.9999669941
     0.1039499482      0.9999659917
     0.1040525095      0.9999649627
     0.1041548425      0.9999639066
     0.1042569475      0.9999628228
     0.1043588251       0.999961711
     0.1044607027       0.999960568
     0.1045623529      0.9999593944
     0.1046635504      0.9999581945
     0.1047647478      0.9999569617
     0.1048657194      0.9999556965
     0.1049664655      0.9999544005
     0.1050669868      0.9999530723
     0.1051672837      0.9999517096
     0.1052673567      0.9999503141
     0.1053672064      0.9999488827
     0.1054668332      0.9999474174
     0.1055662375      0.9999459147
       0.10566542      0.9999443748
     0.1057643812      0.9999427972
     0.1058631214      0.9999411833
     0.1059616412      0.9999395288
     0.1060599411      0.9999378337
     0.1061580216      0.9999360996
     0.1062558832      0.9999343241
     0.1063535263      0.9999325057
     0.1064509514      0.9999306417
     0.1065481591      0.9999287331
     0.1066451499      0.9999267781
     0.1067421406      0.9999247707
     0.1068389143      0.9999227142
     0.1069354715      0.9999206073
     0.1070318128       0.999918449
      0.107128154      0.9999162334
     0.1072242792      0.9999139643
     0.1073201889      0.9999116408
     0.1074160986      0.9999092569
     0.1075117928      0.9999068169
     0.1076072719      0.9999043202
      0.107702751      0.9999017603
     0.1077980151       0.999899142
     0.1078930646      0.9998964647
        0.1079879      0.9998937234
     0.1080825219      0.9998909247
     0.1081769306      0.9998880656
     0.1082711267      0.9998851448
     0.1083651106       0.999882156
     0.1084588829      0.9998791039
      0.108552444      0.9998759815
     0.1086457943      0.9998727962
     0.1087389345      0.9998695406
     0.1088318648      0.9998662132
     0.1089247951      0.9998628123
     0.1090175157      0.9998593071
     0.1091100269      0.9998557454
     0.1092023293      0.9998521137
     0.1092946318      0.9998483716
     0.1093867253      0.9998445693
     0.1094786106      0.9998406967
     0.1095704958         0.9998367
     0.1096621727      0.9998326418
     0.1097536417      0.9998285051
     0.1098449033      0.9998242878
     0.1099361649      0.9998199349
      0.110027219      0.9998154795
     0.1101180663      0.9998109367
     0.1102089135      0.9998063266
     0.1102995538       0.999801635
     0.1103899876      0.9997968528
     0.1104804214       0.999791922
     0.1105706488      0.9997869341
     0.1106606701      0.9997818157
     0.1107506915      0.9997765667
     0.1108405068      0.9997712198
     0.1109303222      0.9997657985
     0.1110199315      0.9997602368
     0.1111093353      0.9997545663
     0.1111987392      0.9997487728
     0.1112879375      0.9997429194
     0.1113769307      0.9997369691
      0.111465924       0.999730829
     0.1115547122      0.9997245428
     0.1116432958      0.9997181303
     0.1117318794      0.9997115806
     0.1118202584      0.9997048916
     0.1119084333      0.9996981252
     0.1119966083      0.9996911802
     0.1120845791      0.9996840779
     0.1121725499      0.9996768203
     0.1122605207      0.9996694054
     0.1123482869      0.9996618433
     0.1124360532      0.9996541188
     0.1125236148      0.9996462509
     0.1126111765      0.9996382201
     0.1126985335      0.9996300509
     0.1127858906      0.9996217181
     0.1128732477      0.9996132178
     0.1129603997      0.9996045598
     0.1130475517      0.9995957257
     0.1131344986      0.9995867355
      0.113221241      0.9995775947
     0.1133079833      0.9995682734
     0.1133945211      0.9995587803
     0.1134808548      0.9995491248
     0.1135671884      0.9995392764
      0.113653318      0.9995292444
     0.1137394476      0.9995190056
     0.1138253731      0.9995085819
     0.1139110949      0.9994979704
     0.1139968168      0.9994871419
     0.1140823351      0.9994761184
     0.1141678533      0.9994648698
     0.1142531679      0.9994534192
     0.1143382794       0.999441764
      0.114423391      0.9994298731
     0.1145082993       0.999417772
     0.1145932077       0.999405429
     0.1146779129      0.9993928714
     0.1147624155      0.9993800976
      0.114846716      0.9993671065
     0.1149310164       0.999353865
     0.1150151147      0.9993404031
      0.115099213      0.9993266865
     0.1151831091      0.9993127463
     0.1152670052       0.999298547
     0.1153506992      0.9992841203
     0.1154341915      0.9992694643
     0.1155176838      0.9992545419
     0.1156009744      0.9992393845
     0.1156840638       0.999223989
     0.1157671533      0.9992083133
     0.1158500415      0.9991923904
     0.1159327291      0.9991762159
     0.1160152164      0.9991597854
     0.1160977037       0.999143053
     0.1161799909      0.9991260537
      0.116262278      0.9991087403
     0.1163443649      0.9990911494
     0.1164262521      0.9990732767
     0.1165081393       0.999055088
     0.1165898268      0.9990366269
     0.1166715142       0.999017832
     0.1167532017      0.9989986942
     0.1168346889      0.9989792553
     0.1169161762      0.9989594638
     0.1169974632      0.9989393647
     0.1170787503       0.998918905
     0.1171598371      0.9988981318
     0.1172409239      0.9988769899
     0.1173218105      0.9988555274
     0.1174026971      0.9988336864
     0.1174833835      0.9988115159
     0.1175640699      0.9987889551
     0.1176445561      0.9987660539
     0.1177250423      0.9987427488
     0.1178055284      0.9987190315
     0.1178858139      0.9986949546
     0.1179660994      0.9986704512
     0.1180461841      0.9986455766
     0.1181262689      0.9986202629
     0.1182061529      0.9985945688
      0.118286037      0.9985684257
      0.118365921      0.9985418286
     0.1184456038      0.9985148417
     0.1185252866      0.9984873943
     0.1186047682      0.9984595538
     0.1186842498      0.9984312479
     0.1187635302      0.9984025457
     0.1188428106      0.9983733701
     0.1189218898      0.9983437904
     0.1190009689      0.9983137262
     0.1190798469      0.9982832476
     0.1191587248      0.9982522697
     0.1192374015      0.9982208635
     0.1193160782      0.9981889395
     0.1193945537      0.9981565707
     0.1194730292      0.9981236642
     0.1195513035      0.9980902524
     0.1196295778      0.9980563187
     0.1197076509       0.998021922
     0.1197857239      0.9979869587
     0.1198635958      0.9979515092
     0.1199414676      0.9979154734
     0.1200191383       0.997878938
     0.1200968089      0.9978418017
     0.1201742783      0.9978041546
     0.1202517477      0.9977658938
     0.1203290159      0.9977271133
     0.1204062841      0.9976877069
      0.120483351      0.9976477721
      0.120560418      0.9976071995
     0.1206372838        0.99756609
     0.1207141495      0.9975243305
     0.1207910153       0.997481913
     0.1208676793      0.9974388758
     0.1209443433      0.9973952129
     0.1210210073      0.9973508854
      0.121097469      0.9973059941
     0.1211739307        0.99726041
     0.1212503924      0.9972141223
     0.1213266513      0.9971672459
     0.1214029102      0.9971196477
     0.1214791692      0.9970713172
     0.1215552247      0.9970223744
     0.1216312803      0.9969725952
     0.1217073358      0.9969220218
     0.1217831874      0.9968707984
     0.1218590391      0.9968188774
     0.1219348907      0.9967661893
     0.1220105379      0.9967127536
     0.1220861851      0.9966585731
     0.1221616279      0.9966037419
     0.1222370706      0.9965479906
     0.1223123089      0.9964916306
     0.1223875472      0.9964344577
     0.1224627855      0.9963763385
     0.1225378188      0.9963176069
     0.1226128521       0.996258049
     0.1226876803      0.9961976897
     0.1227625086      0.9961365495
     0.1228373369       0.996074442
     0.1229121651      0.9960115446
     0.1229867873      0.9959478326
     0.1230614094      0.9958831841
     0.1231360315      0.9958176046
     0.1232106537      0.9957512249
     0.1232852758      0.9956837986
     0.1233596901      0.9956155633
     0.1234341044      0.9955463369
     0.1235085186      0.9954760984
     0.1235829329      0.9954048411
     0.1236571382      0.9953327575
     0.1237313434      0.9952596365
     0.1238055486      0.9951854668
     0.1238797539      0.9951102358
     0.1239537489      0.9950341511
      0.124027744      0.9949569914
      0.124101739      0.9948787467
      0.124175734      0.9947994075
     0.1242495176      0.9947191923
     0.1243233013      0.9946378638
     0.1243970849      0.9945554078
     0.1244708685      0.9944718083
     0.1245444395      0.9943872932
     0.1246180105      0.9943016038
     0.1246915814      0.9942147189
     0.1247651524      0.9941266167
     0.1248387234      0.9940372744
     0.1249120799      0.9939469353
     0.1249854364      0.9938553188
     0.1250587929      0.9937624193
     0.1251321494      0.9936682064
     0.1252052901      0.9935729411
     0.1252784308      0.9934763303
     0.1253515716      0.9933783583
     0.1254247123      0.9932789876
      0.125497636      0.9931784868
     0.1255705597      0.9930765377
     0.1256434834      0.9929731192
     0.1257161894      0.9928685078
     0.1257888955      0.9927623877
     0.1258613838      0.9926550713
     0.1259338721      0.9925463012
     0.1260063605      0.9924360889
     0.1260786305      0.9923247688
     0.1261509005      0.9922120007
     0.1262229521      0.9920981191
     0.1262950038      0.9919827712
     0.1263670555       0.991865964
     0.1264388881      0.9917480283
     0.1265107208      0.9916285896
     0.1265825534      0.9915076271
     0.1266541664      0.9913854986
     0.1267257794      0.9912618177
     0.1267973924      0.9911365651
     0.1268690054      0.9910097213
     0.1269403973      0.9908816651
     0.1270117893      0.9907519875
     0.1270831813      0.9906206678
     0.1271543515       0.990488101
     0.1272255217      0.9903538612
      0.127296692      0.9902179276
     0.1273676398      0.9900807214
     0.1274385877      0.9899417968
     0.1275095355      0.9898011344
     0.1275802602      0.9896591671
      0.127650985      0.9895154389
     0.1277217097      0.9893699338
     0.1277924344       0.989222636
     0.1278631592        0.98907353
     0.1279336586      0.9889230836
     0.1280041581      0.9887708099
     0.1280746576      0.9886166936
     0.1281451571      0.9884607197
     0.1282156566      0.9883028728
     0.1282861561      0.9881431377