# Field minima and maxima
# Time            	field             	min               	location(min)     	processor         	max               	location(max)     	processor         
1.19999040008e-06 	k                 	1.4999879966e-02	(2.3365670349e+00 1.0028723758e-01 1.5038837025e+00)	5	1.4999995582e-02	(-3.8125000000e+00 1.4710107049e+01 2.0000000000e-01)	12
1.19999040008e-06 	epsilon           	3.6813298001e-03	(1.9145207130e+01 1.2937141941e+01 2.0000000000e-01)	12	9.9998465038e-02	(-1.8505527287e-02 2.4290854664e+00 3.1340409090e+00)	1
2.63996505619e-06 	k                 	1.4999735889e-02	(2.3365670349e+00 1.0028723758e-01 1.5038837025e+00)	5	1.4999990281e-02	(-1.4375000000e+00 2.6440525856e+01 2.0000000000e-01)	12
2.63996505619e-06 	epsilon           	3.6813278486e-03	(1.9145207130e+01 1.2937141941e+01 2.0000000000e-01)	12	9.9996623133e-02	(-1.8505527287e-02 2.4290854664e+00 3.1340409090e+00)	1
4.36794459704e-06 	k                 	1.4999562885e-02	(2.3365670349e+00 1.0028723758e-01 1.5038837025e+00)	5	1.4999983920e-02	(2.8087126866e+01 1.7463075574e+01 2.0000000000e-01)	12
4.36794459704e-06 	epsilon           	3.6813255068e-03	(1.9145207130e+01 1.2937141941e+01 2.0000000000e-01)	12	9.9994412895e-02	(-1.8505527287e-02 2.4290854664e+00 3.1340409090e+00)	1
6.44150571252e-06 	k                 	1.4999355033e-02	(2.3365670349e+00 1.0028723758e-01 1.5038837025e+00)	5	1.4999976287e-02	(4.1185761962e+01 5.3125000000e+00 2.0000000000e-01)	18
6.44150571252e-06 	epsilon           	3.6813226967e-03	(1.9145207130e+01 1.2937141941e+01 2.0000000000e-01)	12	9.9991760721e-02	(-1.8505527287e-02 2.4290854664e+00 3.1340409090e+00)	1
8.92973776977e-06 	k                 	1.4999105116e-02	(2.3365670349e+00 1.0028723758e-01 1.5038837025e+00)	5	1.4999967127e-02	(4.1185761962e+01 5.3125000000e+00 2.0000000000e-01)	18
8.92973776977e-06 	epsilon           	3.6813193246e-03	(1.9145207130e+01 1.2937141941e+01 2.0000000000e-01)	12	9.9988578301e-02	(-1.8505527287e-02 2.4290854664e+00 3.1340409090e+00)	1
1.19155270705e-05 	k                 	1.4998804258e-02	(2.3365670349e+00 1.0028723758e-01 1.5038837025e+00)	5	1.4999956135e-02	(3.9238158557e+01 3.6000000000e+00 2.0000000000e-01)	18
1.19155270705e-05 	epsilon           	3.6813152782e-03	(1.9145207130e+01 1.2937141941e+01 2.0000000000e-01)	12	9.9984759708e-02	(-1.8505527287e-02 2.4290854664e+00 3.1340409090e+00)	1
1.54983886296e-05 	k                 	1.4998441421e-02	(2.3365670349e+00 1.0028723758e-01 1.5038837025e+00)	5	1.4999942945e-02	(4.1185761962e+01 5.3125000000e+00 2.0000000000e-01)	18
1.54983886296e-05 	epsilon           	3.6813104227e-03	(1.6323913226e+01 1.2937141941e+01 2.0000000000e-01)	12	9.9980182737e-02	(2.3367348258e+00 3.0088263819e-01 1.5037762127e+00)	5
1.97977608653e-05 	k                 	1.4998002677e-02	(2.3365670349e+00 1.0028723758e-01 1.5038837025e+00)	5	1.4999927118e-02	(4.1185761962e+01 5.3125000000e+00 2.0000000000e-01)	18
1.97977608653e-05 	epsilon           	3.6813045961e-03	(1.9145207130e+01 1.2937141941e+01 2.0000000000e-01)	12	9.9974699209e-02	(2.3367348258e+00 3.0088263819e-01 1.5037762127e+00)	5
2.49567412781e-05 	k                 	1.4997470128e-02	(2.3365670349e+00 1.0028723758e-01 1.5038837025e+00)	5	1.4999908126e-02	(2.4431905801e+01 2.7508644738e+01 2.0000000000e-01)	12
2.49567412781e-05 	epsilon           	3.6812976045e-03	(1.9145207130e+01 1.2937141941e+01 2.0000000000e-01)	12	9.9968132179e-02	(2.3367348258e+00 3.0088263819e-01 1.5037762127e+00)	5
3.11471343486e-05 	k                 	1.4996820170e-02	(2.3365670349e+00 1.0028723758e-01 1.5038837025e+00)	5	1.4999885337e-02	(2.4431905801e+01 2.7508644738e+01 2.0000000000e-01)	12
3.11471343486e-05 	epsilon           	3.6812892152e-03	(1.9145207130e+01 1.2937141941e+01 2.0000000000e-01)	12	9.9960275124e-02	(2.3367348258e+00 3.0088263819e-01 1.5037762127e+00)	5
3.8575237941e-05  	k                 	1.4996020746e-02	(2.3365670349e+00 1.0028723758e-01 1.5038837025e+00)	5	1.4999857991e-02	(2.4431905801e+01 2.7508644738e+01 2.0000000000e-01)	12
3.8575237941e-05  	epsilon           	3.6812791485e-03	(1.9145207130e+01 1.2937141941e+01 2.0000000000e-01)	12	9.9950887610e-02	(2.3367348258e+00 3.0088263819e-01 1.5037762127e+00)	5
4.74889622518e-05 	k                 	1.4995026858e-02	(2.3365670349e+00 1.0028723758e-01 1.5038837025e+00)	5	1.4999825177e-02	(2.4431905801e+01 2.7508644738e+01 2.0000000000e-01)	12
4.74889622518e-05 	epsilon           	3.6812670684e-03	(1.9145207130e+01 1.2937141941e+01 2.0000000000e-01)	12	9.9939693801e-02	(2.3367348258e+00 3.0088263819e-01 1.5037762127e+00)	5
5.81854314247e-05 	k                 	1.4993773248e-02	(2.3365670349e+00 1.0028723758e-01 1.5038837025e+00)	5	1.4999785800e-02	(2.4431905801e+01 2.7508644738e+01 2.0000000000e-01)	12
5.81854314247e-05 	epsilon           	3.6812525723e-03	(1.9145207130e+01 1.2937141941e+01 2.0000000000e-01)	12	9.9926385882e-02	(2.3367348258e+00 3.0088263819e-01 1.5037762127e+00)	5
7.10206446266e-05 	k                 	1.4992162081e-02	(2.3365670349e+00 1.0028723758e-01 1.5038837025e+00)	5	1.4999738549e-02	(2.4431905801e+01 2.7508644738e+01 2.0000000000e-01)	12
7.10206446266e-05 	epsilon           	3.6812351778e-03	(1.9145207130e+01 1.2937141941e+01 2.0000000000e-01)	12	9.9910634263e-02	(2.3367348258e+00 3.0088263819e-01 1.5037762127e+00)	5
8.64213168522e-05 	k                 	1.4990042229e-02	(2.3365670349e+00 1.0028723758e-01 1.5038837025e+00)	5	1.4999681853e-02	(2.4431905801e+01 2.7508644738e+01 2.0000000000e-01)	12
8.64213168522e-05 	epsilon           	3.6812143064e-03	(1.9145207130e+01 1.2937141941e+01 2.0000000000e-01)	12	9.9892110854e-02	(2.3367348258e+00 3.0088263819e-01 1.5037762127e+00)	5
0.000104900983155 	k                 	1.4987174073e-02	(2.3365670349e+00 1.0028723758e-01 1.5038837025e+00)	5	1.4999613823e-02	(2.4431905801e+01 2.7508644738e+01 2.0000000000e-01)	12
0.000104900983155 	epsilon           	3.6811892623e-03	(1.6323913226e+01 1.2937141941e+01 2.0000000000e-01)	12	9.9870533232e-02	(2.3367348258e+00 3.0088263819e-01 1.5037762127e+00)	5
0.000127076582718 	k                 	1.4983170790e-02	(2.3365670349e+00 1.0028723758e-01 1.5038837025e+00)	5	1.4999532186e-02	(2.4431905801e+01 2.7508644738e+01 2.0000000000e-01)	12
0.000127076582718 	epsilon           	3.6811592094e-03	(1.6323913226e+01 1.2937141941e+01 2.0000000000e-01)	12	9.9845751451e-02	(2.3367348258e+00 3.0088263819e-01 1.5037762127e+00)	5
0.000153689668853 	k                 	1.4977400202e-02	(2.3365670349e+00 1.0028723758e-01 1.5038837025e+00)	5	1.4999434213e-02	(2.4431905801e+01 2.7508644738e+01 2.0000000000e-01)	12
0.000153689668853 	epsilon           	3.6811231426e-03	(1.9145207130e+01 1.2937141941e+01 2.0000000000e-01)	12	9.9817896575e-02	(2.3367348258e+00 3.0088263819e-01 1.5037762127e+00)	5
0.000185621962467 	k                 	1.4968826427e-02	(2.3365670349e+00 1.0028723758e-01 1.5038837025e+00)	5	1.4999316658e-02	(2.4431905801e+01 2.7508644738e+01 2.0000000000e-01)	12
0.000185621962467 	epsilon           	3.6810798671e-03	(1.7237066517e+01 1.2937141941e+01 2.0000000000e-01)	12	9.9787632280e-02	(2.3367348258e+00 3.0088263819e-01 1.5037762127e+00)	5
0.000223940714803 	k                 	1.4955748820e-02	(2.3365670349e+00 1.0028723758e-01 1.5038837025e+00)	5	1.4999175591e-02	(2.4431905801e+01 2.7508644738e+01 2.0000000000e-01)	12
0.000223940714803 	epsilon           	3.6810279363e-03	(1.7237066517e+01 1.2937141941e+01 2.0000000000e-01)	12	9.9756504863e-02	(2.3367348258e+00 3.0088263819e-01 1.5037762127e+00)	5
0.000269901988382 	k                 	1.4935418500e-02	(2.3365670349e+00 1.0028723758e-01 1.5038837025e+00)	5	1.4999006388e-02	(5.4504441871e+01 2.7508644738e+01 2.0000000000e-01)	18
0.000269901988382 	epsilon           	3.6809656481e-03	(1.9145207130e+01 1.2937141941e+01 2.0000000000e-01)	12	9.9727450999e-02	(2.3367348258e+00 3.0088263819e-01 1.5037762127e+00)	5
0.000325035134736 	k                 	1.4903455361e-02	(2.3365670349e+00 1.0028723758e-01 1.5038837025e+00)	5	1.4998803419e-02	(5.4504441871e+01 2.7508644738e+01 2.0000000000e-01)	18
0.000325035134736 	epsilon           	3.6808909297e-03	(1.6323913226e+01 1.2937141941e+01 2.0000000000e-01)	12	9.9705235293e-02	(2.3367348258e+00 3.0088263819e-01 1.5037762127e+00)	5
0.000391180227766 	k                 	1.4853117956e-02	(2.3365670349e+00 1.0028723758e-01 1.5038837025e+00)	5	1.4998559908e-02	(5.4504441871e+01 2.7508644738e+01 2.0000000000e-01)	18
0.000391180227766 	epsilon           	3.6808012873e-03	(1.7237066517e+01 1.2937141941e+01 2.0000000000e-01)	12	9.9696477962e-02	(2.3367348258e+00 3.0088263819e-01 1.5037762127e+00)	5
0.000470554339401 	k                 	1.4774581469e-02	(2.3365670349e+00 1.0028723758e-01 1.5038837025e+00)	5	1.4998267693e-02	(5.4504441871e+01 2.7508644738e+01 2.0000000000e-01)	18
0.000470554339401 	epsilon           	3.6806937160e-03	(1.6323913226e+01 1.2937141941e+01 2.0000000000e-01)	12	9.9708026074e-02	(2.3367348258e+00 3.0088263819e-01 1.5037762127e+00)	5
0.000565803273364 	k                 	1.4654805474e-02	(2.3365670349e+00 1.0028723758e-01 1.5038837025e+00)	5	1.4997917032e-02	(3.3550133670e+01 2.3323255907e+01 2.0000000000e-01)	18
0.000565803273364 	epsilon           	3.6805646301e-03	(1.7237066517e+01 1.2937141941e+01 2.0000000000e-01)	12	9.9741288384e-02	(2.3367348258e+00 3.0088263819e-01 1.5037762127e+00)	5
0.000679970009453 	k                 	1.4479295031e-02	(2.3365670349e+00 1.0028723758e-01 1.5038837025e+00)	5	1.4999577863e-02	(2.3367348258e+00 3.0088263819e-01 1.5037762127e+00)	5
0.000679970009453 	epsilon           	3.6804099051e-03	(1.7237066517e+01 1.2937141941e+01 2.0000000000e-01)	12	9.9779146379e-02	(2.3367348258e+00 3.0088263819e-01 1.5037762127e+00)	5
0.00081697009276  	k                 	1.4236304176e-02	(2.3365670349e+00 1.0028723758e-01 1.5038837025e+00)	5	1.5002563094e-02	(2.3367348258e+00 3.0088263819e-01 1.5037762127e+00)	5
0.00081697009276  	epsilon           	3.6802242343e-03	(1.7237066517e+01 1.2937141941e+01 2.0000000000e-01)	12	9.9764608494e-02	(2.3367348258e+00 3.0088263819e-01 1.5037762127e+00)	5
0.00098146183158  	k                 	1.3925808722e-02	(2.3365670349e+00 1.0028723758e-01 1.5038837025e+00)	5	1.4996386740e-02	(5.4504441871e+01 2.7508644738e+01 2.0000000000e-01)	18
0.00098146183158  	epsilon           	3.6800013038e-03	(1.7237066517e+01 1.2937141941e+01 2.0000000000e-01)	12	9.9580894018e-02	(2.3367348258e+00 3.0088263819e-01 1.5037762127e+00)	5
0.00117911722742  	k                 	1.3569015893e-02	(2.3365670349e+00 1.0028723758e-01 1.5038837025e+00)	5	1.4995659028e-02	(5.4504441871e+01 2.7508644738e+01 2.0000000000e-01)	18
0.00117911722742  	epsilon           	3.6797334259e-03	(1.7237066517e+01 1.2937141941e+01 2.0000000000e-01)	12	9.9067186318e-02	(2.3367348258e+00 3.0088263819e-01 1.5037762127e+00)	5
0.00141611180399  	k                 	1.3210245611e-02	(2.3365670349e+00 1.0028723758e-01 1.5038837025e+00)	5	1.4994786464e-02	(5.4504441871e+01 2.7508644738e+01 2.0000000000e-01)	18
0.00141611180399  	epsilon           	3.6794122300e-03	(1.7237066517e+01 1.2937141941e+01 2.0000000000e-01)	12	9.8653415124e-02	(2.3370174083e+00 5.0153958717e-01 1.5035824432e+00)	5
0.00166654421737  	k                 	1.2927737300e-02	(2.3365670349e+00 1.0028723758e-01 1.5038837025e+00)	5	1.4993864404e-02	(5.4504441871e+01 2.7508644738e+01 2.0000000000e-01)	18
0.00166654421737  	epsilon           	3.6790728205e-03	(1.7237066517e+01 1.2937141941e+01 2.0000000000e-01)	12	9.8308494884e-02	(2.3359444962e+00 3.0101288136e-01 1.3030413849e+00)	5
0.00191697663075  	k                 	1.2701229034e-02	(2.3365670349e+00 1.0028723758e-01 1.5038837025e+00)	5	1.4992942323e-02	(5.4504441871e+01 2.7508644738e+01 2.0000000000e-01)	18
0.00191697663075  	epsilon           	3.6787334064e-03	(1.7237066517e+01 1.2937141941e+01 2.0000000000e-01)	12	9.7876633249e-02	(2.3352396792e+00 3.0113028231e-01 1.1023740274e+00)	5
0.00216740904413  	k                 	1.2485755914e-02	(2.3365670349e+00 1.0028723758e-01 1.5038837025e+00)	5	1.4992020221e-02	(5.4504441871e+01 2.7508644738e+01 2.0000000000e-01)	18
0.00216740904413  	epsilon           	3.6783939897e-03	(1.7237066517e+01 1.2937141941e+01 2.0000000000e-01)	12	9.7492936634e-02	(2.5430580890e+00 3.0110931505e-01 1.1024430430e+00)	5
0.00241784145751  	k                 	1.2266663992e-02	(2.3365670349e+00 1.0028723758e-01 1.5038837025e+00)	5	1.4991098100e-02	(5.4504441871e+01 2.7508644738e+01 2.0000000000e-01)	18
0.00241784145751  	epsilon           	3.6780545705e-03	(1.7237066517e+01 1.2937141941e+01 2.0000000000e-01)	12	9.7152763857e-02	(1.9193513096e+00 3.0094580491e-01 1.3027016147e+00)	4
0.00266827387089  	k                 	1.2045407089e-02	(2.3365670349e+00 1.0028723758e-01 1.5038837025e+00)	5	1.4990175958e-02	(5.4504441871e+01 2.7508644738e+01 2.0000000000e-01)	18
0.00266827387089  	epsilon           	3.6777151490e-03	(1.7237066517e+01 1.2937141941e+01 2.0000000000e-01)	12	9.6819980207e-02	(2.5424685427e+00 3.0120284286e-01 9.0185792767e-01)	5
0.00291870628428  	k                 	1.1829501414e-02	(2.3365670349e+00 1.0028723758e-01 1.5038837025e+00)	5	1.4989253798e-02	(5.4504441871e+01 2.7508644738e+01 2.0000000000e-01)	18
0.00291870628428  	epsilon           	3.6773757254e-03	(1.7237066517e+01 1.2937141941e+01 2.0000000000e-01)	12	9.6498916007e-02	(2.7499623292e+00 3.0112357179e-01 9.0188539809e-01)	5
0.00316913869766  	k                 	1.1624288819e-02	(2.3365670349e+00 1.0028723758e-01 1.5038837025e+00)	5	1.4988331618e-02	(5.4504441871e+01 2.7508644738e+01 2.0000000000e-01)	18
0.00316913869766  	epsilon           	3.6770363027e-03	(1.7237066517e+01 1.2937141941e+01 2.0000000000e-01)	12	9.6180409899e-02	(1.9238530082e+00 5.0073371307e-01 2.1058538604e+00)	4
0.00341957111104  	k                 	1.1428831176e-02	(2.3365670349e+00 1.0028723758e-01 1.5038837025e+00)	5	1.4987409420e-02	(5.4504441871e+01 2.7508644738e+01 2.0000000000e-01)	18
0.00341957111104  	epsilon           	3.6766968752e-03	(1.7237066517e+01 1.2937141941e+01 2.0000000000e-01)	12	9.5888866743e-02	(2.5435545419e+00 1.0032272049e-01 1.3032284231e+00)	5
0.00367000352442  	k                 	1.1238702554e-02	(2.3365670349e+00 1.0028723758e-01 1.5038837025e+00)	5	1.4986487204e-02	(5.4504441871e+01 2.7508644738e+01 2.0000000000e-01)	18
0.00367000352442  	epsilon           	3.6763574459e-03	(1.7237066517e+01 1.2937141941e+01 2.0000000000e-01)	12	9.5623148102e-02	(2.5435545419e+00 1.0032272049e-01 1.3032284231e+00)	5
0.0039204359378   	k                 	1.1051343727e-02	(2.3365670349e+00 1.0028723758e-01 1.5038837025e+00)	5	1.4985564969e-02	(5.4504441871e+01 2.7508644738e+01 2.0000000000e-01)	18
0.0039204359378   	epsilon           	3.6760180151e-03	(1.7237066517e+01 1.2937141941e+01 2.0000000000e-01)	12	9.5347323294e-02	(2.5435545419e+00 1.0032272049e-01 1.3032284231e+00)	5
0.00417086835118  	k                 	1.0867698618e-02	(2.3365670349e+00 1.0028723758e-01 1.5038837025e+00)	5	1.4984642717e-02	(5.4504441871e+01 2.7508644738e+01 2.0000000000e-01)	18
0.00417086835118  	epsilon           	3.6756785829e-03	(1.7237066517e+01 1.2937141941e+01 2.0000000000e-01)	12	9.5062817638e-02	(2.5435545419e+00 1.0032272049e-01 1.3032284231e+00)	5
0.00442130076456  	k                 	1.0690109667e-02	(2.3365670349e+00 1.0028723758e-01 1.5038837025e+00)	5	1.4983720448e-02	(5.4504441871e+01 2.7508644738e+01 2.0000000000e-01)	18
0.00442130076456  	epsilon           	3.6753391493e-03	(1.7237066517e+01 1.2937141941e+01 2.0000000000e-01)	12	9.4772923746e-02	(2.5435545419e+00 1.0032272049e-01 1.3032284231e+00)	5
0.00467173317795  	k                 	1.0519766027e-02	(2.3365670349e+00 1.0028723758e-01 1.5038837025e+00)	5	1.4982798161e-02	(5.4504441871e+01 2.7508644738e+01 2.0000000000e-01)	18
0.00467173317795  	epsilon           	3.6749997196e-03	(2.2224347218e+01 1.2937141941e+01 2.0000000000e-01)	12	9.4480226657e-02	(2.5435545419e+00 1.0032272049e-01 1.3032284231e+00)	5
0.00492216559133  	k                 	1.0356169500e-02	(2.3365670349e+00 1.0028723758e-01 1.5038837025e+00)	5	1.4981875858e-02	(5.4504441871e+01 2.7508644738e+01 2.0000000000e-01)	18
0.00492216559133  	epsilon           	3.6746602840e-03	(1.9145207130e+01 1.2937141941e+01 2.0000000000e-01)	12	9.4187332972e-02	(2.5451684827e+00 1.0023436048e-01 1.7047195624e+00)	5
0.00517259800471  	k                 	1.0198314075e-02	(2.3365670349e+00 1.0028723758e-01 1.5038837025e+00)	5	1.4980953539e-02	(5.4504441871e+01 2.7508644738e+01 2.0000000000e-01)	18
0.00517259800471  	epsilon           	3.6743208474e-03	(1.9145207130e+01 1.2937141941e+01 2.0000000000e-01)	12	9.3894764049e-02	(2.5451684827e+00 1.0023436048e-01 1.7047195624e+00)	5
0.00542303041809  	k                 	1.0045635464e-02	(2.3365670349e+00 1.0028723758e-01 1.5038837025e+00)	5	1.4980031204e-02	(5.4504441871e+01 2.7508644738e+01 2.0000000000e-01)	18
0.00542303041809  	epsilon           	3.6739814102e-03	(1.9145207130e+01 1.2937141941e+01 2.0000000000e-01)	12	9.3604596090e-02	(2.5451684827e+00 1.0023436048e-01 1.7047195624e+00)	5
0.00567346283147  	k                 	9.8978854691e-03	(2.3365670349e+00 1.0028723758e-01 1.5038837025e+00)	5	1.4979108853e-02	(5.4504441871e+01 2.7508644738e+01 2.0000000000e-01)	18
0.00567346283147  	epsilon           	3.6736419724e-03	(1.9145207130e+01 1.2937141941e+01 2.0000000000e-01)	12	9.3317660469e-02	(2.5435545419e+00 1.0032272049e-01 1.3032284231e+00)	5
0.00592389524485  	k                 	9.7548354135e-03	(2.3365670349e+00 1.0028723758e-01 1.5038837025e+00)	5	1.4978186487e-02	(3.9238158557e+01 1.7463075574e+01 2.0000000000e-01)	18
0.00592389524485  	epsilon           	3.6733025342e-03	(1.9145207130e+01 1.2937141941e+01 2.0000000000e-01)	12	9.3032547494e-02	(2.5435545419e+00 1.0032272049e-01 1.3032284231e+00)	5
0.00617432765824  	k                 	9.6162429123e-03	(2.3365670349e+00 1.0028723758e-01 1.5038837025e+00)	5	1.4977264106e-02	(6.1250000000e+00 2.8591615198e+01 2.0000000000e-01)	12
0.00617432765824  	epsilon           	3.6729630957e-03	(1.9145207130e+01 1.2937141941e+01 2.0000000000e-01)	12	9.2746873943e-02	(2.5435545419e+00 1.0032272049e-01 1.3032284231e+00)	5
0.00642476007162  	k                 	9.4819370646e-03	(2.3365670349e+00 1.0028723758e-01 1.5038837025e+00)	5	1.4976341711e-02	(6.1250000000e+00 2.8591615198e+01 2.0000000000e-01)	12
0.00642476007162  	epsilon           	3.6726236570e-03	(1.9145207130e+01 1.2937141941e+01 2.0000000000e-01)	12	9.2459588616e-02	(2.5451684827e+00 1.0023436048e-01 1.7047195624e+00)	5
0.006675192485    	k                 	9.3518256958e-03	(2.3365670349e+00 1.0028723758e-01 1.5038837025e+00)	5	1.4975419301e-02	(6.1250000000e+00 2.8591615198e+01 2.0000000000e-01)	12
0.006675192485    	epsilon           	3.6722842183e-03	(1.9145207130e+01 1.2937141941e+01 2.0000000000e-01)	12	9.2171399859e-02	(2.5451684827e+00 1.0023436048e-01 1.7047195624e+00)	5
0.00692562489838  	k                 	9.2258185811e-03	(2.3365670349e+00 1.0028723758e-01 1.5038837025e+00)	5	1.4974496877e-02	(6.1250000000e+00 2.8591615198e+01 2.0000000000e-01)	12
0.00692562489838  	epsilon           	3.6719447798e-03	(1.9145207130e+01 1.2937141941e+01 2.0000000000e-01)	12	9.1882000523e-02	(2.5451684827e+00 1.0023436048e-01 1.7047195624e+00)	5
0.00717605731176  	k                 	9.1037767693e-03	(2.3365670349e+00 1.0028723758e-01 1.5038837025e+00)	5	1.4973574439e-02	(6.1250000000e+00 2.8591615198e+01 2.0000000000e-01)	12
0.00717605731176  	epsilon           	3.6716053415e-03	(1.9145207130e+01 1.2937141941e+01 2.0000000000e-01)	12	9.1591434871e-02	(2.5451684827e+00 1.0023436048e-01 1.7047195624e+00)	5
0.00742648972514  	k                 	8.9854921602e-03	(2.3365670349e+00 1.0028723758e-01 1.5038837025e+00)	5	1.4972651988e-02	(3.9238158557e+01 1.7463075574e+01 2.0000000000e-01)	18
0.00742648972514  	epsilon           	3.6712659118e-03	(1.9145207130e+01 1.2937141941e+01 2.0000000000e-01)	12	9.1299379893e-02	(2.5451684827e+00 1.0023436048e-01 1.7047195624e+00)	5
0.00767692213852  	k                 	8.8708146900e-03	(2.3365670349e+00 1.0028723758e-01 1.5038837025e+00)	5	1.4971729525e-02	(3.9238158557e+01 1.7463075574e+01 2.0000000000e-01)	18
0.00767692213852  	epsilon           	3.6709264745e-03	(1.9145207130e+01 1.2937141941e+01 2.0000000000e-01)	12	9.1019205504e-02	(2.3378027679e+00 5.0129609419e-01 1.7043857365e+00)	5
0.00792735455191  	k                 	8.7596510621e-03	(2.3365670349e+00 1.0028723758e-01 1.5038837025e+00)	5	1.4970807048e-02	(3.9238158557e+01 1.7463075574e+01 2.0000000000e-01)	18
0.00792735455191  	epsilon           	3.6705870378e-03	(1.9145207130e+01 1.2937141941e+01 2.0000000000e-01)	12	9.0748708661e-02	(2.3378027679e+00 5.0129609419e-01 1.7043857365e+00)	5
0.00817778696529  	k                 	8.6518821868e-03	(2.3365670349e+00 1.0028723758e-01 1.5038837025e+00)	5	1.4969884559e-02	(3.9238158557e+01 1.7463075574e+01 2.0000000000e-01)	18
0.00817778696529  	epsilon           	3.6702475822e-03	(1.9145207130e+01 1.2937141941e+01 2.0000000000e-01)	12	9.0478891541e-02	(2.3378027679e+00 5.0129609419e-01 1.7043857365e+00)	5
0.00842821937867  	k                 	8.5473410233e-03	(2.3365670349e+00 1.0028723758e-01 1.5038837025e+00)	5	1.4968962058e-02	(3.9238158557e+01 1.7463075574e+01 2.0000000000e-01)	18
0.00842821937867  	epsilon           	3.6699081670e-03	(2.2224347218e+01 1.2937141941e+01 2.0000000000e-01)	12	9.0209448806e-02	(2.3378027679e+00 5.0129609419e-01 1.7043857365e+00)	5
0.00867865179205  	k                 	8.4458629199e-03	(2.3365670349e+00 1.0028723758e-01 1.5038837025e+00)	5	1.4968039546e-02	(3.9238158557e+01 1.7463075574e+01 2.0000000000e-01)	18
0.00867865179205  	epsilon           	3.6695687331e-03	(2.1167905479e+01 1.2937141941e+01 2.0000000000e-01)	12	8.9940446947e-02	(2.3362971146e+00 5.0176051836e-01 1.3028425313e+00)	5
0.00892908420543  	k                 	8.3473227385e-03	(2.3365670349e+00 1.0028723758e-01 1.5038837025e+00)	5	1.4967117022e-02	(2.8982383953e+01 8.0000000000e+00 2.0000000000e-01)	18
0.00892908420543  	epsilon           	3.6692293005e-03	(2.1167905479e+01 1.2937141941e+01 2.0000000000e-01)	12	8.9671799956e-02	(2.3362971146e+00 5.0176051836e-01 1.3028425313e+00)	5
0.00917951661881  	k                 	8.2516255146e-03	(2.3365670349e+00 1.0028723758e-01 1.5038837025e+00)	5	1.4966194486e-02	(2.8982383953e+01 8.0000000000e+00 2.0000000000e-01)	18
0.00917951661881  	epsilon           	3.6688898692e-03	(2.1167905479e+01 1.2937141941e+01 2.0000000000e-01)	12	8.9402719723e-02	(2.3362971146e+00 5.0176051836e-01 1.3028425313e+00)	5
0.0094299490322   	k                 	8.1586811693e-03	(2.3365670349e+00 1.0028723758e-01 1.5038837025e+00)	5	1.4965271940e-02	(2.8982383953e+01 8.0000000000e+00 2.0000000000e-01)	18
0.0094299490322   	epsilon           	3.6685504393e-03	(2.1167905479e+01 1.2937141941e+01 2.0000000000e-01)	12	8.9133251541e-02	(2.3362971146e+00 5.0176051836e-01 1.3028425313e+00)	5
0.00968038144558  	k                 	8.0683939171e-03	(2.3365670349e+00 1.0028723758e-01 1.5038837025e+00)	5	1.4964349384e-02	(2.8982383953e+01 8.0000000000e+00 2.0000000000e-01)	18
0.00968038144558  	epsilon           	3.6682110111e-03	(2.1167905479e+01 1.2937141941e+01 2.0000000000e-01)	12	8.8866034453e-02	(2.1278321284e+00 3.0099684309e-01 1.3029095534e+00)	5
0.00993081385896  	k                 	7.9806632006e-03	(2.3365670349e+00 1.0028723758e-01 1.5038837025e+00)	5	1.4963426817e-02	(2.8982383953e+01 8.0000000000e+00 2.0000000000e-01)	18
0.00993081385896  	epsilon           	3.6678715845e-03	(2.2224347218e+01 1.2937141941e+01 2.0000000000e-01)	12	8.8599730902e-02	(2.1278321284e+00 3.0099684309e-01 1.3029095534e+00)	5
0.0101812462723   	k                 	7.8953911977e-03	(2.3365670349e+00 1.0028723758e-01 1.5038837025e+00)	5	1.4962504241e-02	(2.8982383953e+01 8.0000000000e+00 2.0000000000e-01)	18
0.0101812462723   	epsilon           	3.6675321599e-03	(2.1167905479e+01 1.2937141941e+01 2.0000000000e-01)	12	8.8334516622e-02	(2.1278321284e+00 3.0099684309e-01 1.3029095534e+00)	5
0.0104316786857   	k                 	7.8124819005e-03	(2.3365670349e+00 1.0028723758e-01 1.5038837025e+00)	5	1.4961581655e-02	(2.8982383953e+01 8.0000000000e+00 2.0000000000e-01)	18
0.0104316786857   	epsilon           	3.6671927372e-03	(2.2224347218e+01 1.2937141941e+01 2.0000000000e-01)	12	8.8070919250e-02	(2.1278321284e+00 3.0099684309e-01 1.3029095534e+00)	5
0.0106821110991   	k                 	7.7318501283e-03	(2.3365670349e+00 1.0028723758e-01 1.5038837025e+00)	5	1.4960659059e-02	(2.8982383953e+01 8.0000000000e+00 2.0000000000e-01)	18
0.0106821110991   	epsilon           	3.6668533167e-03	(2.1167905479e+01 1.2937141941e+01 2.0000000000e-01)	12	8.7809316085e-02	(2.1278321284e+00 3.0099684309e-01 1.3029095534e+00)	5
0.0109325435125   	k                 	7.6534210788e-03	(2.3365670349e+00 1.0028723758e-01 1.5038837025e+00)	5	1.4959736455e-02	(2.8982383953e+01 8.0000000000e+00 2.0000000000e-01)	18
0.0109325435125   	epsilon           	3.6665138984e-03	(2.1167905479e+01 1.2937141941e+01 2.0000000000e-01)	12	8.7549908546e-02	(2.1278321284e+00 3.0099684309e-01 1.3029095534e+00)	5
0.0111829759259   	k                 	7.5771241436e-03	(2.3365670349e+00 1.0028723758e-01 1.5038837025e+00)	5	1.4958813842e-02	(2.8982383953e+01 8.0000000000e+00 2.0000000000e-01)	18
0.0111829759259   	epsilon           	3.6661744825e-03	(1.9145207130e+01 1.2937141941e+01 2.0000000000e-01)	12	8.7292999890e-02	(2.1296401670e+00 3.0073337584e-01 1.7044385203e+00)	5
0.0114334083392   	k                 	7.5028905195e-03	(2.3365670349e+00 1.0028723758e-01 1.5038837025e+00)	5	1.4957891220e-02	(2.8982383953e+01 8.0000000000e+00 2.0000000000e-01)	18
0.0114334083392   	epsilon           	3.6658350690e-03	(2.1167905479e+01 1.2937141941e+01 2.0000000000e-01)	12	8.7038192407e-02	(2.1296401670e+00 3.0073337584e-01 1.7044385203e+00)	5
0.0116838407526   	k                 	7.4306475757e-03	(2.3365670349e+00 1.0028723758e-01 1.5038837025e+00)	5	1.4956968591e-02	(2.8982383953e+01 8.0000000000e+00 2.0000000000e-01)	18
0.0116838407526   	epsilon           	3.6654956582e-03	(1.9145207130e+01 1.2937141941e+01 2.0000000000e-01)	12	8.6785109856e-02	(2.1296401670e+00 3.0073337584e-01 1.7044385203e+00)	5
0.011934273166    	k                 	7.3603184536e-03	(2.3365670349e+00 1.0028723758e-01 1.5038837025e+00)	5	1.4956045954e-02	(2.8982383953e+01 8.0000000000e+00 2.0000000000e-01)	18
0.011934273166    	epsilon           	3.6651562502e-03	(1.9145207130e+01 1.2937141941e+01 2.0000000000e-01)	12	8.6533552696e-02	(2.1278321284e+00 3.0099684309e-01 1.3029095534e+00)	5
0.0121847055794   	k                 	7.2918269602e-03	(2.3365670349e+00 1.0028723758e-01 1.5038837025e+00)	5	1.4955123309e-02	(2.8982383953e+01 8.0000000000e+00 2.0000000000e-01)	18
0.0121847055794   	epsilon           	3.6648168588e-03	(2.2224347218e+01 1.2937141941e+01 2.0000000000e-01)	12	8.6283561355e-02	(2.1278321284e+00 3.0099684309e-01 1.3029095534e+00)	5
0.0124351379928   	k                 	7.2250961433e-03	(2.3365670349e+00 1.0028723758e-01 1.5038837025e+00)	5	1.4954200657e-02	(2.8982383953e+01 8.0000000000e+00 2.0000000000e-01)	18
0.0124351379928   	epsilon           	3.6644774566e-03	(2.2224347218e+01 1.2937141941e+01 2.0000000000e-01)	12	8.6034346999e-02	(2.1278321284e+00 3.0099684309e-01 1.3029095534e+00)	5
0.0126855704062   	k                 	7.1600523017e-03	(2.3365670349e+00 1.0028723758e-01 1.5038837025e+00)	5	1.4953277998e-02	(2.8982383953e+01 8.0000000000e+00 2.0000000000e-01)	18
0.0126855704062   	epsilon           	3.6641380576e-03	(2.2224347218e+01 1.2937141941e+01 2.0000000000e-01)	12	8.5785432758e-02	(2.1278321284e+00 3.0099684309e-01 1.3029095534e+00)	5
0.0129360028195   	k                 	7.0966283937e-03	(2.3365670349e+00 1.0028723758e-01 1.5038837025e+00)	5	1.4952355332e-02	(2.8982383953e+01 8.0000000000e+00 2.0000000000e-01)	18
0.0129360028195   	epsilon           	3.6637986618e-03	(2.2224347218e+01 1.2937141941e+01 2.0000000000e-01)	12	8.5541757331e-02	(4.6916218104e+00 1.0724299552e+00 4.7713712520e-01)	5
0.0131864352329   	k                 	7.0347656632e-03	(2.3365670349e+00 1.0028723758e-01 1.5038837025e+00)	5	1.4951432661e-02	(2.8982383953e+01 8.0000000000e+00 2.0000000000e-01)	18
0.0131864352329   	epsilon           	3.6634592694e-03	(2.2224347218e+01 1.2937141941e+01 2.0000000000e-01)	12	8.5311595167e-02	(4.6916218104e+00 1.0724299552e+00 4.7713712520e-01)	5
0.0134368676463   	k                 	6.9744142619e-03	(2.3365670349e+00 1.0028723758e-01 1.5038837025e+00)	5	1.4950509983e-02	(2.8982383953e+01 8.0000000000e+00 2.0000000000e-01)	18
0.0134368676463   	epsilon           	3.6631198805e-03	(2.2224347218e+01 1.2937141941e+01 2.0000000000e-01)	12	8.5078314565e-02	(4.6916218104e+00 1.0724299552e+00 4.7713712520e-01)	5
0.0136873000597   	k                 	6.9155381796e-03	(2.3365670349e+00 1.0028723758e-01 1.5038837025e+00)	5	1.4949587299e-02	(2.8982383953e+01 8.0000000000e+00 2.0000000000e-01)	18
0.0136873000597   	epsilon           	3.6627804952e-03	(2.2224347218e+01 1.2937141941e+01 2.0000000000e-01)	12	8.4840083567e-02	(4.6916218104e+00 1.0724299552e+00 4.7713712520e-01)	5
0.0139377324731   	k                 	6.8581241336e-03	(2.3365670349e+00 1.0028723758e-01 1.5038837025e+00)	5	1.4948664610e-02	(3.6365448348e+01 4.0000000000e-01 2.0000000000e-01)	18
0.0139377324731   	epsilon           	3.6624411136e-03	(2.2224347218e+01 1.2937141941e+01 2.0000000000e-01)	12	8.4599560363e-02	(4.6916218104e+00 1.0724299552e+00 4.7713712520e-01)	5
0.0141881648864   	k                 	6.8022145602e-03	(2.3365670349e+00 1.0028723758e-01 1.5038837025e+00)	5	1.4947741916e-02	(3.6365448348e+01 4.0000000000e-01 2.0000000000e-01)	18
0.0141881648864   	epsilon           	3.6621017359e-03	(2.2224347218e+01 1.2937141941e+01 2.0000000000e-01)	12	8.4360470107e-02	(4.6916218104e+00 1.0724299552e+00 4.7713712520e-01)	5