# Probe 0 (3.4 0.005 1.5)
# Probe 1 (4.4 0.005 1.5)
# Probe 2 (5.4 0.005 1.5)
# Probe 3 (5.9 0.005 1.5)
# Probe 4 (6.2 0.005 1.5)
# Probe 5 (6.7 0.005 1.5)
# Probe 6 (8.2 0.005 1.5)
#           Probe                 0                 1                 2                 3                 4                 5                 6
#            Time
    1.1999904e-06        3.10550524       3.317271428       3.346479544        3.34935802       3.350129756       3.350704968       3.351030022
  2.639965056e-06       3.105503226       3.317269276       3.346477373       3.349355848       3.350127584       3.350702794       3.351027848
  4.367944597e-06       3.105500809       3.317266695       3.346474768       3.349353241       3.350124976       3.350700186        3.35102524
  6.441505713e-06       3.105497908       3.317263596       3.346471643       3.349350112       3.350121847       3.350697057        3.35102211
   8.92973777e-06       3.105494428       3.317259879       3.346467892       3.349346359       3.350118093       3.350693302       3.351018355
  1.191552707e-05       3.105490252       3.317255418       3.346463392       3.349341855       3.350113587       3.350688796       3.351013848
  1.549838863e-05        3.10548524       3.317250065       3.346457992        3.34933645       3.350108181       3.350683389       3.351008441
  1.979776087e-05       3.105479227       3.317243641       3.346451512       3.349329964       3.350101694       3.350676901       3.351001952
  2.495674128e-05       3.105472012       3.317235934       3.346443737       3.349322183       3.350093911       3.350669116       3.350994167
  3.114713435e-05       3.105463355       3.317226687       3.346434408       3.349312846       3.350084572       3.350659775       3.350984825
  3.857523794e-05       3.105452968       3.317215591       3.346423215       3.349301643       3.350073366       3.350648568       3.350973617
  4.748896225e-05       3.105440504       3.317202277       3.346409784         3.3492882       3.350059921        3.35063512       3.350960167
  5.818543142e-05       3.105425548       3.317186302       3.346393668       3.349272071       3.350043787       3.350618984        3.35094403
  7.102064463e-05       3.105407605       3.317167135       3.346374332       3.349252718        3.35002443       3.350599623       3.350924667
  8.642131685e-05       3.105386078        3.31714414       3.346351134         3.3492295       3.350001207       3.350576396       3.350901438
  0.0001049009832       3.105360251       3.317116552       3.346323303       3.349201646       3.349973346        3.35054853       3.350873569
  0.0001270765827       3.105329265       3.317083452       3.346289913       3.349168226       3.349939919       3.350515097       3.350840133
  0.0001536896689       3.105292086       3.317043739       3.346249849       3.349128128       3.349899812       3.350474984       3.350800016
  0.0001856219625        3.10524749       3.316996101       3.346201792        3.34908003       3.349851702       3.350426866       3.350751893
  0.0002239407148       3.105193993       3.316938954       3.346144142        3.34902233       3.349793989       3.350369143       3.350694165
  0.0002699019884       3.105129854       3.316870437       3.346075022       3.348953151       3.349724794       3.350299935        3.35062495
  0.0003250351347       3.105052958       3.316788287       3.345992148       3.348870205       3.349641829       3.350216957       3.350541964
  0.0003911802278       3.104960768       3.316689784       3.345892778        3.34877075       3.349542351       3.350117461       3.350442459
  0.0004705543394       3.104850248       3.316571662       3.345773616       3.348651486       3.349423059       3.349998149       3.350323135
  0.0005658032734       3.104717808       3.316430033        3.34563074       3.348508486       3.349280027       3.349855092       3.350180064
  0.0006799700095         3.1045594       3.316260441       3.345459655       3.348337254       3.349108755       3.349683791       3.350008746
  0.0008169700928       3.104369946       3.316057172       3.345254596       3.348132019       3.348903473       3.349478473       3.349803408
  0.0009814618316       3.104143688       3.315813459       3.345008737       3.347885948       3.348657346       3.349232304       3.349557215
   0.001179117227       3.103874057        3.31552111       3.344713811        3.34759077         3.3483621       3.348937007        3.34926189
   0.001416111804       3.103554508       3.315171291       3.344360908       3.347237565       3.348008813        3.34858366       3.348908508
   0.001666544217       3.103221063        3.31480249       3.343988847       3.346865186       3.347636348       3.348211132       3.348535944
   0.001916976631        3.10289101       3.314434568       3.343617655       3.346493678       3.347264755       3.347839474        3.34816425
   0.002167409044       3.102562601       3.314067545        3.34324733       3.346123039       3.346894031       3.347468687       3.347793427
   0.002417841458       3.102233478       3.313701452       3.342877868       3.345753266       3.346524173       3.347098766        3.34742347
   0.002668273871       3.101901308       3.313336342       3.342509266       3.345384355       3.346155178       3.346729708       3.347054376
   0.002918706284        3.10156439        3.31297229       3.342141521       3.345016303       3.345787043        3.34636151       3.346686143
   0.003169138698       3.101222042       3.312609397       3.341774633       3.344649109       3.345419767       3.345994171       3.346318769
   0.003419571111       3.100874696       3.312247772       3.341408594       3.344282763       3.345053341       3.345627683       3.345952245
   0.003670003524       3.100523861       3.311887541       3.341043406       3.343917265       3.344687763       3.345262045       3.345586571
   0.003920435938       3.100171522       3.311528812        3.34067907       3.343552611       3.344323031       3.344897253       3.345221744
   0.004170868351       3.099819615       3.311171661       3.340315591       3.343188799       3.343959141       3.344533304       3.344857761
   0.004421300765       3.099469708       3.310816097       3.339952973       3.342825825        3.34359609       3.344170196       3.344494618
   0.004671733178       3.099123033       3.310462045       3.339591228       3.342463695       3.343233879        3.34380793       3.344132318
   0.004922165591        3.09878044       3.310109298       3.339230357       3.342102396       3.342872495       3.343446491       3.343770847
   0.005172598005       3.098442153       3.309757528       3.338870381       3.341741935        3.34251194       3.343085883       3.343410206
   0.005423030418       3.098107635       3.309406274       3.338511321       3.341382316       3.342152214       3.342726101       3.343050393
   0.005673462831       3.097775935       3.309054988       3.338153208       3.341023539       3.341793316       3.342367142       3.342691405
   0.005923895245       3.097446171       3.308703116       3.337796079       3.340665611       3.341435246       3.342009004       3.342333238
   0.006174327658       3.097117797         3.3083502       3.337439976       3.340308535       3.341078005       3.341651683        3.34197589
   0.006424760072       3.096790664       3.307995997        3.33708494       3.339952321       3.340721597       3.341295178       3.341619357
   0.006675192485       3.096464865       3.307640549       3.336731014        3.33959698       3.340366022       3.340939486       3.341263636
   0.006925624898       3.096140577        3.30728422       3.336378229        3.33924253       3.340011283       3.340584606       3.340908725
   0.007176057312       3.095817881       3.306927662       3.336026597       3.338888994       3.339657387       3.340230539       3.340554619
   0.007426489725       3.095496737       3.306571743       3.335676113       3.338536407       3.339304349       3.339877292       3.340201326
   0.007676922139        3.09517694        3.30621737       3.335326706        3.33818478       3.338952167       3.339524849       3.339848824
   0.007927354552       3.094858233       3.305865411       3.334978287       3.337834154       3.338600866        3.33917322       3.339497119
   0.008177786965       3.094540347       3.305516521       3.334630689       3.337484536       3.338250449       3.338822388       3.339146189
   0.008428219379       3.094222937       3.305171135        3.33428378       3.337136002       3.337900995       3.338472411       3.338796088
   0.008678651792       3.093905315       3.304829244       3.333937294       3.336788505       3.337552477       3.338123239       3.338446756
   0.008929084205       3.093586746       3.304490627       3.333591051       3.336442051       3.337204938         3.3377749       3.338098209
   0.009179516619       3.093266613       3.304154802       3.333244902       3.336096603       3.336858402       3.337427406       3.337750445
   0.009429949032       3.092944516       3.303821097       3.332898783       3.335752099       3.336512886        3.33708077        3.33740346
   0.009680381446       3.092620461       3.303488689       3.332552746       3.335408447       3.336168391       3.336735012       3.337057251
   0.009930813859       3.092294863       3.303156648       3.332206957       3.335065532       3.335824905       3.336390149       3.336711816
    0.01018124627       3.091968458       3.302824004       3.331861692       3.334723228       3.335482394       3.336046202       3.336367152
    0.01043167869       3.091642216       3.302489849       3.331517308       3.334381413       3.335140798       3.335703192       3.336023257
     0.0106821111       3.091317197        3.30215345       3.331174184       3.334039988       3.334800036       3.335361135       3.335680129
    0.01093254351       3.090994424       3.301814374       3.330832647       3.333698893       3.334460007        3.33502004       3.335337766
    0.01118297593       3.090674759       3.301472569       3.330492885       3.333358122       3.334120596        3.33467991       3.334996166
    0.01143340834       3.090358809       3.301128457       3.330154889       3.333017726       3.333781693       3.334340732       3.334655329
    0.01168384075       3.090046812       3.300782919       3.329818418       3.332677808         3.3334432       3.334002481       3.334315253
    0.01193427317       3.089738619        3.30043714       3.329483007         3.3323385       3.333105055       3.333665112       3.333975938
    0.01218470558       3.089433689       3.300092529       3.329148036       3.331999947       3.332767242       3.333328576       3.333637396
    0.01243513799       3.089131122        3.29975045       3.328812785       3.331662218        3.33242975       3.332992765       3.333299601
    0.01268557041       3.088829869       3.299412083       3.328476623       3.331325352       3.332092636       3.332657603        3.33296257
    0.01293600282       3.088528901       3.299078191       3.328139099       3.330989285       3.331755965       3.332322989       3.332626307
    0.01318643523       3.088227392       3.298749033       3.327800074       3.330653854       3.331419805       3.331988828       3.332290816
    0.01343686765       3.087924797        3.29842436       3.327459804       3.330318834       3.331084201       3.331655034       3.331956105
    0.01368730006       3.087620901       3.298103523        3.32711895       3.329983974       3.330749165       3.331321536       3.331622182
    0.01393773247       3.087315819        3.29778564       3.326778511       3.329649066       3.330414666       3.330988289       3.331289056
    0.01418816489       3.087009962        3.29746971       3.326439703       3.329314014       3.330080644       3.330655272       3.330956737
     0.0144385973       3.086703956       3.297154732       3.326103763       3.328978885       3.329747039        3.33032249       3.330625236
    0.01468902971       3.086398518        3.29683971       3.325771726       3.328643955       3.329413814       3.329989975       3.330294565
    0.01493946213       3.086094254       3.296523773       3.325444212       3.328309697       3.329080981       3.329657778       3.329964732
    0.01518989454       3.085791466       3.296206278       3.325121284       3.327976736       3.328748654       3.329325975       3.329635746
    0.01544032695       3.085490002       3.295886899       3.324802377       3.327645757        3.32841706       3.328994661       3.329307607
    0.01569075937       3.085189176       3.295565696         3.3244864       3.327317382       3.328086527       3.328663953       3.328980312
    0.01594119178       3.084887881       3.295243063       3.324171946       3.326992059       3.327757462       3.328333982       3.328653849
    0.01619162419       3.084584884       3.294919457       3.323857513       3.326669944       3.327430281       3.328004891       3.328328192
    0.01644205661       3.084279207       3.294595334       3.323541751       3.326350833        3.32710534       3.327676844       3.328003306
    0.01669248902       3.083970427       3.294273311       3.323224375       3.326034175       3.326782855       3.327350016        3.32767914
    0.01694292143       3.083658811       3.293955041       3.322905128       3.325719153       3.326462846       3.327024578        3.32735563
    0.01719335385       3.083345297       3.293638132       3.322584575       3.325404766       3.326145093       3.326700685         3.3270327
    0.01744378626       3.083031356       3.293320164        3.32226388       3.325090012       3.325829159       3.326378456       3.326710267
    0.01769421867       3.082718753       3.293000451       3.321943738       3.324774034       3.325514391       3.326057949       3.326388247
    0.01794465109        3.08240925       3.292677548       3.321624146       3.324456306       3.325200024        3.32573914       3.326066559
     0.0181950835       3.082104303       3.292350658       3.321304354       3.324136736       3.324885263       3.325421911        3.32574514
    0.01844551591        3.08180484       3.292020273       3.320983048       3.323815673       3.324569421       3.325106041       3.325423952
    0.01869594833       3.081511134       3.291688018        3.32065881       3.323493797       3.324252059       3.324791219       3.325102989
    0.01894638074       3.081222788       3.291356138        3.32033069       3.323171893       3.323933083       3.324477063       3.324782279
    0.01919681315       3.080938819       3.291026973       3.319998743       3.322850618       3.323612789       3.324163172       3.324461918
    0.01944724557       3.080657748        3.29070242       3.319664153       3.322530193       3.323291728       3.323849091       3.324141972
    0.01969767798        3.08037798       3.290383758       3.319329073       3.322210447        3.32297068       3.323534492       3.323822607
    0.01994811039       3.080098059       3.290071503       3.318996026        3.32189081       3.322650374       3.323219149       3.323503994
    0.02019854281       3.079816936       3.289765498        3.31866757       3.321570556       3.322331313       3.322903007       3.323186314
    0.02044897522       3.079534057       3.289465057       3.318345916       3.321249141       3.322013645       3.322586208       3.322869741
    0.02069940763       3.079249316       3.289169113       3.318032408       3.320926549        3.32169713       3.322269075       3.322554418
    0.02094984005       3.078962908       3.288876364       3.317727142       3.320603508       3.321381252        3.32195206       3.322240443
    0.02120027246       3.078675119       3.288585252       3.317428865       3.320281431       3.321065448       3.321635661       3.321927852
    0.02145070487       3.078386201       3.288294098       3.317135296       3.319962135       3.320749381       3.321320319       3.321616619
    0.02170113729       3.078096269        3.28800129       3.316843552       3.319647403       3.320433135       3.321006331       3.321306659
     0.0219515697       3.077805331        3.28770554       3.316550584       3.319338459       3.320117307       3.320693793       3.320997835
    0.02220200211        3.07751337       3.287406133       3.316253852       3.319035526        3.31980293       3.320382588       3.320689968
    0.02245243453        3.07722043       3.287103024       3.315951822       3.318737671       3.319491199       3.320072449       3.320382847
    0.02270286694       3.076926699       3.286796673       3.315644206       3.318443027       3.319183061       3.319763059       3.320076244
    0.02295329935       3.076632565        3.28648765       3.315331878       3.318149117       3.318878879       3.319454162       3.319769934
    0.02320373177       3.076338646       3.286176797       3.315016589       3.317853373       3.318578283        3.31914566       3.319463718
    0.02345416418       3.076045783       3.285865014       3.314700497       3.317553741       3.318280182       3.318837648       3.319157449
    0.02370459659       3.075754978       3.285553099       3.314385615        3.31724915       3.317982938       3.318530388       3.318851051
    0.02395502901       3.075467291       3.285241712       3.314073361       3.316939734       3.317684746       3.318224199       3.318544529
    0.02420546142       3.075183709       3.284931527       3.313764373       3.316626726       3.317384106       3.317919334       3.318237978
    0.02445589384       3.074904957       3.284623433       3.313458546       3.316312074       3.317080202       3.317615878       3.317931566
    0.02470632625       3.074631336       3.284318364       3.313155229       3.315997955       3.316773093       3.317313694       3.317625523
    0.02495675866       3.074362587       3.284017058       3.312853538       3.315686289       3.316463656       3.317012437       3.317320113
    0.02520719108       3.074097792        3.28371996       3.312552684        3.31537833       3.316153326       3.316711648         3.3170156
    0.02545762349       3.073835472       3.283427151       3.312252187       3.315074476        3.31584375       3.316410894       3.316712216
     0.0257080559       3.073573865       3.283138288       3.311951947       3.314774308       3.315536369        3.31610988       3.316410126
    0.02595848832        3.07331116       3.282852633       3.311652178       3.314476841       3.315232105       3.315808511       3.316109403
    0.02620892073       3.073045733       3.282569193       3.311353239       3.314180874       3.314931196       3.315506902       3.315810003
    0.02645935314       3.072776357       3.282286875       3.311055456       3.313885352       3.314633224       3.315205342        3.31551177
    0.02670978556       3.072502408       3.282004564       3.310758974       3.313589623        3.31433733       3.314904201       3.315214443
    0.02696021797        3.07222394       3.281721259       3.310463712       3.313293524       3.314042513       3.314603837       3.314917692
    0.02721065038        3.07194165       3.281436078         3.3101694       3.312997294        3.31374792       3.314304509        3.31462116
     0.0274610828       3.071656725       3.281148351       3.309875702        3.31270138       3.313453057       3.314006341       3.314324519
    0.02771151521       3.071370595       3.280857693       3.309582339       3.312406221       3.313157861       3.313709337       3.314027528
    0.02796194762       3.071084686       3.280563996        3.30928915       3.312112067       3.312862646       3.313413422        3.31373008
    0.02821238004       3.070800191       3.280267386       3.308996085       3.311818896       3.312567936       3.313118503       3.313432234
    0.02846281245       3.070517934       3.279968293        3.30870314       3.311526446       3.312274243       3.312824527       3.313134216
    0.02871324486       3.070238322       3.279667424       3.308410273       3.311234329        3.31198188         3.3125315       3.312836394
    0.02896367728       3.069961368       3.279365713       3.308117323       3.310942176       3.311690845        3.31223948       3.312539222
    0.02921410969       3.069686786       3.279064231       3.307824007       3.310649757       3.311400821       3.311948524       3.312243171
     0.0294645421       3.069414086        3.27876408       3.307529983       3.310357022       3.311111273       3.311658634       3.311948652
    0.02971497452       3.069142669       3.278466286       3.307234966       3.310064073       3.310821604        3.31136971       3.311655943
    0.02996540693       3.068871933       3.278171702       3.306938852       3.309771091       3.310531326       3.311081529       3.311365137
    0.03021583934       3.068601386        3.27788097       3.306641842       3.309478272       3.310240206       3.310793791       3.311076161
    0.03046627176       3.068330628       3.277594301       3.306344322       3.309185629       3.309948191       3.310506039       3.310788667
    0.03071670417       3.068059549       3.277311687       3.306047008        3.30889318       3.309655561       3.310217928       3.310502275
    0.03096713658       3.067788247       3.277032955       3.305750691       3.308600856       3.309362707       3.309929171       3.310216511
      0.031217569       3.067517023       3.276757681       3.305456131       3.308308617       3.309070039       3.309639626       3.309930912
    0.03146800141       3.067246313       3.276485179       3.305163945       3.308016523       3.308777893        3.30934933       3.309645099
    0.03171843382       3.066976601       3.276214607       3.304874541       3.307724775       3.308486486       3.309058492       3.309358839
    0.03196886624       3.066708322       3.275945078       3.304588107       3.307433708       3.308195917       3.308767457       3.309072072
    0.03221929865       3.066441778       3.275675758       3.304304652        3.30714373       3.307906215       3.308476648       3.308784921
    0.03246973106       3.066177092       3.275405944       3.304024069        3.30685526       3.307617409       3.308186491       3.308497661
    0.03272016348       3.065914195       3.275135116        3.30374618        3.30656865       3.307329579       3.307897354       3.308210664
    0.03297059589       3.065652862       3.274862964       3.303470742       3.306284152       3.307042886       3.307609502       3.307924337
     0.0332210283       3.065392765        3.27458937       3.303197406       3.306001898       3.306757558       3.307323072       3.307639043
    0.03347146072       3.065133554       3.274314351       3.302925668       3.305721906       3.306473845       3.307038079       3.307355031
    0.03372189313       3.064874926       3.274037989       3.302654826       3.305444094       3.306191965       3.306754439       3.307072393
    0.03397232554       3.064616685       3.273760391       3.302383981       3.305168283       3.305912048       3.306472012        3.30679105
    0.03422275796       3.064358756       3.273481679       3.302112094       3.304894184       3.305634098       3.306190654       3.306510773
    0.03447319037       3.064101153       3.273202004       3.301838121       3.304621378       3.305357984       3.305910256       3.306231228
    0.03472362278       3.063843911       3.272921638       3.301561192       3.304349302       3.305083431       3.305630771       3.305952047
     0.0349740552       3.063587008       3.272640964       3.301280819       3.304077264       3.304810051       3.305352223       3.305672894
    0.03522448761       3.063330281       3.272360475       3.300997052       3.303804496       3.304537365       3.305074685        3.30539353
    0.03547492002       3.063073389       3.272080663       3.300710542       3.303530252        3.30426484       3.304798241       3.305113851
    0.03572535244        3.06281587       3.271801908       3.300422448       3.303253935       3.303991932        3.30452294         3.3048339
    0.03597578485       3.062557288       3.271524429       3.300134209       3.302975234       3.303718133       3.304248745       3.304553844
    0.03622621726       3.062297416       3.271248278       3.299847234       3.302694217       3.303443037         3.3039755       3.304273934
    0.03647664968       3.062036521       3.270973363       3.299562608       3.302411368       3.303166409       3.303702924       3.303994457
    0.03672708209       3.061775419       3.270699579       3.299280903        3.30212753       3.302888234       3.303430634       3.303715683
     0.0369775145         3.0615152       3.270426922       3.299002134       3.301843764       3.302608752       3.303158194       3.303437827
    0.03722794692       3.061256911       3.270155561       3.298725883       3.301561157       3.302328444       3.302885197       3.303161028
    0.03747837933       3.061001179       3.269885819       3.298451532       3.301280617       3.302047975       3.302611338       3.302885342
    0.03772881174       3.060748176       3.269618097       3.298178499       3.301002707       3.301768093       3.302336486       3.302610762
    0.03797924416       3.060497402       3.269352744       3.297906381       3.300727569       3.301489505       3.302060725       3.302337228
    0.03822967657       3.060248308        3.26908992       3.297634996       3.300454948        3.30121275       3.301784352       3.302064652
    0.03848010898       3.060000483       3.268829528       3.297364312       3.300184306       3.300938113       3.301507837       3.301792932
     0.0387305414       3.059752939       3.268571212       3.297094341       3.299914977       3.300665584        3.30123174       3.301521967
    0.03898097381       3.059504573       3.268314421        3.29682504       3.299646325       3.300394889       3.300956617       3.301251663
    0.03923140622        3.05925435       3.268058489       3.296556278       3.299377848       3.300125573       3.300682921       3.300981934
    0.03948183864       3.059001635       3.267802729       3.296287861        3.29910922       3.299857106       3.300410922         3.3007127
    0.03973227105       3.058746354       3.267546494       3.296019612       3.298840283       3.299589002       3.300140676       3.300443894
    0.03998270346       3.058489149       3.267289215       3.295751438       3.298570998       3.299320894       3.299872019       3.300175464
    0.04023313588       3.058230757       3.267030428       3.295483366       3.298301412       3.299052576       3.299604617       3.299907372
    0.04048356829        3.05797197        3.26676982       3.295215533       3.298031637       3.298784002       3.299338035       3.299639601
     0.0407340007       3.057714455       3.266507287       3.294948138       3.297761858       3.298515257        3.29907182       3.299372153
    0.04098443312        3.05745912       3.266242998       3.294681387       3.297492335       3.298246505       3.298805582       3.299105045
    0.04123486553       3.057206164       3.265977314        3.29441544       3.297223401       3.297977953       3.298539053       3.298838308
    0.04148529795       3.056955646       3.265710669        3.29415038       3.296955419       3.297709812       3.298272117       3.298571976
    0.04173573036       3.056706309       3.265443661         3.2938862       3.296688718       3.297442282       3.298004813       3.298306081
    0.04198616277       3.056457435       3.265176961       3.293622789       3.296423524       3.297175535       3.297737313       3.298040647
    0.04223659519       3.056208407       3.264911208       3.293359942       3.296159903       3.296909706       3.297469879       3.297775688
     0.0424870276       3.055958909       3.264646912       3.293097379       3.295897746       3.296644886       3.297202814       3.297511213
    0.04273746001       3.055708814       3.264384613        3.29283479       3.295636786       3.296381114       3.296936411       3.297247224
    0.04298789243        3.05545801       3.264124986       3.292571915       3.295376654        3.29611838        3.29667091       3.296983723
    0.04323832484       3.055206356       3.263868506        3.29230862        3.29511694       3.295856625        3.29640647       3.296720713
    0.04348875725        3.05495363       3.263615346       3.292044971       3.294857263       3.295595757        3.29614316       3.296458193
    0.04373918967       3.054699734       3.263365319       3.291781264       3.294597321       3.295335659       3.295880965       3.296196154
    0.04398962208       3.054444762       3.263117871       3.291518001       3.294336935       3.295076196       3.295619813       3.295934573
    0.04424005449       3.054189064        3.26287217       3.291255853       3.294076079       3.294817225       3.295359606       3.295673404
    0.04449048691       3.053933208       3.262627243        3.29099558       3.293814894       3.294558597       3.295100248       3.295412583
    0.04474091932       3.053677884        3.26238219       3.290738018       3.293553694        3.29430018       3.294841667       3.295152034
    0.04499135173       3.053423779        3.26213632       3.290483984       3.293292944       3.294041878       3.294583819       3.294891683
    0.04524178415       3.053171477       3.261889255       3.290233903       3.293033216       3.293783677       3.294326676       3.294631476