# Probe 0 (0.4 0.005 1.4)
# Probe 1 (0.9 0.005 1.4)
# Probe 2 (1.4 0.005 1.4)
# Probe 3 (1.9 0.005 1.4)
# Probe 4 (2.4 0.005 1.4)
# Probe 5 (2.9 0.005 1.4)
# Probe 6 (3.4 0.005 1.4)
# Probe 7 (3.9 0.005 1.4)
# Probe 8 (4.4 0.005 1.4)
# Probe 9 (4.9 0.005 1.4)
# Probe 10 (5.4 0.005 1.4)
# Probe 11 (5.9 0.005 1.4)
# Probe 12 (6.4 0.005 1.4)
# Probe 13 (6.9 0.005 1.4)
# Probe 14 (7.4 0.005 1.4)
# Probe 15 (7.9 0.005 1.4)
# Probe 16 (8.4 0.005 1.4)
#           Probe                 0                 1                 2                 3                 4                 5                 6                 7                 8                 9                10                11                12                13                14                15                16
#            Time
    1.1999904e-06                 1                 1                 1                 1      0.9999923816                 1                 1                 1                 1                 1                 1                 1                 1                 1                 1                 1                 1
  2.639965056e-06                 1                 1                 1      0.9999999999      0.9999832383                 1                 1                 1                 1                 1                 1                 1                 1                 1                 1                 1                 1
  4.367944597e-06                 1                 1                 1      0.9999999997      0.9999722641                 1                 1                 1                 1                 1                 1                 1                 1                 1                 1                 1                 1
  6.441505713e-06                 1                 1                 1      0.9999999995      0.9999590916                 1                 1                 1                 1                 1                 1                 1                 1                 1                 1                 1                 1
   8.92973777e-06                 1                 1                 1       0.999999999      0.9999432798                 1                 1                 1                 1                 1                 1                 1                 1                 1                 1                 1                 1
  1.191552707e-05                 1                 1                 1      0.9999999983      0.9999242988                 1                 1                 1                 1                 1                 1                 1                 1                 1                 1                 1                 1
  1.549838863e-05                 1                 1                 1      0.9999999971      0.9999015115                 1                 1                 1                 1                 1                 1                 1                 1                 1                 1                 1                 1
  1.979776087e-05                 1                 1                 1      0.9999999953      0.9998741518                 1                 1                 1                 1                 1                 1                 1                 1                 1                 1                 1                 1
  2.495674128e-05                 1                 1                 1      0.9999999925      0.9998412996                 1                 1                 1                 1                 1                 1                 1                 1                 1                 1                 1                 1
  3.114713435e-05                 1                 1                 1      0.9999999883      0.9998018475                 1                 1                 1                 1                 1                 1                 1                 1                 1                 1                 1                 1
  3.857523794e-05                 1                 1                 1       0.999999982      0.9997544613                 1                 1                 1                 1                 1                 1                 1                 1                 1                 1                 1                 1
  4.748896225e-05                 1                 1                 1      0.9999999726      0.9996975314                 1                 1                 1                 1                 1                 1                 1                 1                 1                 1                 1                 1
  5.818543142e-05                 1                 1                 1      0.9999999587      0.9996291194                 1                 1                 1                 1                 1                 1                 1                 1                 1                 1                 1                 1
  7.102064463e-05                 1                 1                 1       0.999999938      0.9995468895                 1                 1                 1                 1                 1                 1                 1                 1                 1                 1                 1                 1
  8.642131685e-05                 1                 1                 1      0.9999999072      0.9994480223                 1                 1                 1                 1                 1                 1                 1                 1                 1                 1                 1                 1
  0.0001049009832                 1                 1                 1      0.9999998612      0.9993290962                 1                 1                 1                 1                 1                 1                 1                 1                 1                 1                 1                 1
  0.0001270765827                 1                 1                 1       0.999999792      0.9991859575                 1                 1                 1                 1                 1                 1                 1                 1                 1                 1                 1                 1
  0.0001536896689                 1                 1                 1      0.9999996869      0.9990135493                 1                 1                 1                 1                 1                 1                 1                 1                 1                 1                 1                 1
  0.0001856219625                 1                 1                 1      0.9999995248      0.9988057566      0.9999999999                 1                 1                 1                 1                 1                 1                 1                 1                 1                 1                 1
  0.0002239407148                 1                 1                 1      0.9999992704      0.9985550278      0.9999999999                 1                 1                 1                 1                 1                 1                 1                 1                 1                 1                 1
  0.0002699019884                 1                 1                 1      0.9999988629        0.99825222      0.9999999996                 1                 1                 1                 1                 1                 1                 1                 1                 1                 1                 1
  0.0003250351347                 1                 1                 1      0.9999981954      0.9978858293       0.999999999                 1                 1                 1                 1                 1                 1                 1                 1                 1                 1                 1
  0.0003911802278                 1                 1                 1      0.9999970793      0.9974413914      0.9999999973                 1                 1                 1                 1                 1                 1                 1                 1                 1                 1                 1
  0.0004705543394                 1                 1                 1      0.9999951832      0.9969004819      0.9999999925                 1                 1                 1                 1                 1                 1                 1                 1                 1                 1                 1
  0.0005658032734                 1                 1                 1      0.9999919434      0.9962395336      0.9999999795                 1                 1                 1                 1                 1                 1                 1                 1                 1                 1                 1
  0.0006799700095                 1                 1                 1      0.9999864602      0.9954289735      0.9999999449                 1                 1                 1                 1                 1                 1                 1                 1                 1                 1                 1
  0.0008169700928                 1                 1                 1      0.9999774114      0.9944286636      0.9999998571                 1                 1                 1                 1                 1                 1                 1                 1                 1                 1                 1
  0.0009814618316                 1                 1                 1      0.9999631619      0.9931879119      0.9999996503                 1                 1                 1                 1                 1                 1                 1                 1                 1                 1                 1
   0.001179117227                 1                 1                 1      0.9999422065      0.9916437231      0.9999992129                 1                 1                 1                 1                 1                 1                 1                 1                 1                 1                 1
   0.001416111804                 1                 1                 1      0.9999139422      0.9897259902      0.9999984075                 1                 1                 1                 1                 1                 1                 1                 1                 1                 1                 1
   0.001666544217                 1                 1                 1      0.9998826648      0.9876347903       0.999997287                 1                 1                 1                 1                 1                 1                 1                 1                 1                 1                 1
   0.001916976631                 1                 1      0.9999999999      0.9998491087      0.9854788351      0.9999959621                 1                 1                 1                 1                 1                 1                 1                 1                 1                 1                 1
   0.002167409044                 1                 1      0.9999999999      0.9998112127      0.9832476823      0.9999944566                 1                 1                 1                 1                 1                 1                 1                 1                 1                 1                 1
   0.002417841458                 1                 1      0.9999999998        0.99976809      0.9809312938      0.9999927388                 1                 1                 1                 1                 1                 1                 1                 1                 1                 1                 1
   0.002668273871                 1                 1      0.9999999997      0.9997196475      0.9785243991       0.999990743      0.9999999999                 1                 1                 1                 1                 1                 1                 1                 1                 1                 1
   0.002918706284                 1                 1      0.9999999995      0.9996662715      0.9760261401      0.9999883945      0.9999999999                 1                 1                 1                 1                 1                 1                 1                 1                 1                 1
   0.003169138698                 1                 1      0.9999999994      0.9996082047      0.9734368072       0.999985624      0.9999999999                 1                 1                 1                 1                 1                 1                 1                 1                 1                 1
   0.003419571111                 1                 1      0.9999999992       0.999545029      0.9707542731      0.9999823627      0.9999999998                 1                 1                 1                 1                 1                 1                 1                 1                 1                 1
   0.003670003524                 1                 1       0.999999999      0.9994758861      0.9679736782      0.9999785358      0.9999999998                 1                 1                 1                 1                 1                 1                 1                 1                 1                 1
   0.003920435938                 1                 1      0.9999999987      0.9994001839      0.9650902859      0.9999740695      0.9999999997                 1                 1                 1                 1                 1                 1                 1                 1                 1                 1
   0.004170868351                 1                 1      0.9999999984      0.9993179407      0.9621017644      0.9999689091      0.9999999996                 1                 1                 1                 1                 1                 1                 1                 1                 1                 1
   0.004421300765                 1                 1       0.999999998      0.9992295352       0.959007719      0.9999630307      0.9999999995                 1                 1                 1                 1                 1                 1                 1                 1                 1                 1
   0.004671733178                 1                 1      0.9999999974      0.9991352377      0.9558075942      0.9999564356      0.9999999994                 1                 1                 1                 1                 1                 1                 1                 1                 1                 1
   0.004922165591                 1                 1      0.9999999968      0.9990349939      0.9524993251      0.9999491283      0.9999999992                 1                 1                 1                 1                 1                 1                 1                 1                 1                 1
   0.005172598005                 1                 1      0.9999999959      0.9989285695      0.9490777909      0.9999410957       0.999999999                 1                 1                 1                 1                 1                 1                 1                 1                 1                 1
   0.005423030418                 1                 1      0.9999999949      0.9988157205      0.9455384243      0.9999322979      0.9999999987                 1                 1                 1                 1                 1                 1                 1                 1                 1                 1
   0.005673462831                 1                 1      0.9999999936       0.998696215      0.9418799091      0.9999226748      0.9999999984                 1                 1                 1                 1                 1                 1                 1                 1                 1                 1
   0.005923895245                 1                 1      0.9999999921      0.9985698016      0.9380995939      0.9999121611       0.999999998                 1                 1                 1                 1                 1                 1                 1                 1                 1                 1
   0.006174327658                 1                 1      0.9999999903      0.9984362235      0.9341943134         0.9999007      0.9999999975                 1                 1                 1                 1                 1                 1                 1                 1                 1                 1
   0.006424760072                 1                 1      0.9999999881      0.9982952599      0.9301609079      0.9998882487      0.9999999969                 1                 1                 1                 1                 1                 1                 1                 1                 1                 1
   0.006675192485                 1                 1      0.9999999856      0.9981467318      0.9259963906      0.9998747742      0.9999999962                 1                 1                 1                 1                 1                 1                 1                 1                 1                 1
   0.006925624898                 1                 1      0.9999999826      0.9979904605      0.9216977656      0.9998602441      0.9999999953                 1                 1                 1                 1                 1                 1                 1                 1                 1                 1
   0.007176057312                 1                 1       0.999999979      0.9978262293      0.9172618089      0.9998446198      0.9999999943                 1                 1                 1                 1                 1                 1                 1                 1                 1                 1
   0.007426489725                 1                 1      0.9999999749      0.9976538114      0.9126942002      0.9998278558      0.9999999931                 1                 1                 1                 1                 1                 1                 1                 1                 1                 1
   0.007676922139                 1                 1      0.9999999701      0.9974729609      0.9079859748      0.9998099068      0.9999999917                 1                 1                 1                 1                 1                 1                 1                 1                 1                 1
   0.007927354552                 1                 1      0.9999999649      0.9972833964      0.9031319842        0.99979073      0.9999999901                 1                 1                 1                 1                 1                 1                 1                 1                 1                 1
   0.008177786965                 1                 1      0.9999999592      0.9970847489      0.8981279727      0.9997702768      0.9999999883                 1                 1                 1                 1                 1                 1                 1                 1                 1                 1
   0.008428219379                 1                 1       0.999999953       0.996876682      0.8929698827      0.9997484972      0.9999999863                 1                 1                 1                 1                 1                 1                 1                 1                 1                 1
   0.008678651792                 1                 1      0.9999999463      0.9966588617      0.8876534152      0.9997253205      0.9999999841                 1                 1                 1                 1                 1                 1                 1                 1                 1                 1
   0.008929084205                 1                 1      0.9999999389      0.9964309891      0.8821744269      0.9997006809      0.9999999817                 1                 1                 1                 1                 1                 1                 1                 1                 1                 1
   0.009179516619                 1                 1      0.9999999309       0.996192762      0.8765289528      0.9996745177       0.999999979                 1                 1                 1                 1                 1                 1                 1                 1                 1                 1
   0.009429949032                 1                 1      0.9999999221      0.9959438454      0.8707130748      0.9996467708      0.9999999761                 1                 1                 1                 1                 1                 1                 1                 1                 1                 1
   0.009680381446                 1                 1      0.9999999114      0.9956840073      0.8647227856      0.9996173793      0.9999999729                 1                 1                 1                 1                 1                 1                 1                 1                 1                 1
   0.009930813859                 1                 1      0.9999998991      0.9954127568      0.8585539145      0.9995862743      0.9999999694                 1                 1                 1                 1                 1                 1                 1                 1                 1                 1
    0.01018124627                 1                 1      0.9999998849      0.9951296372      0.8522021312      0.9995533752      0.9999999655                 1                 1                 1                 1                 1                 1                 1                 1                 1                 1
    0.01043167869                 1                 1      0.9999998688      0.9948341813       0.845662955      0.9995185864      0.9999999613                 1                 1                 1                 1                 1                 1                 1                 1                 1                 1
     0.0106821111                 1                 1      0.9999998506      0.9945258976      0.8389318331       0.999481798      0.9999999566                 1                 1                 1                 1                 1                 1                 1                 1                 1                 1
    0.01093254351                 1                 1      0.9999998315      0.9942040475      0.8320042008      0.9994428888      0.9999999515                 1                 1                 1                 1                 1                 1                 1                 1                 1                 1
    0.01118297593                 1                 1      0.9999998094      0.9938684613      0.8248754871      0.9994017313      0.9999999458                 1                 1                 1                 1                 1                 1                 1                 1                 1                 1
    0.01143340834                 1                 1      0.9999997842      0.9935184706      0.8175410984      0.9993581943      0.9999999396                 1                 1                 1                 1                 1                 1                 1                 1                 1                 1
    0.01168384075                 1                 1      0.9999997557      0.9931534416      0.8099963622      0.9993120112      0.9999999325                 1                 1                 1                 1                 1                 1                 1                 1                 1                 1
    0.01193427317                 1                 1      0.9999997234      0.9927727403      0.8022365339      0.9992631251      0.9999999241                 1                 1                 1                 1                 1                 1                 1                 1                 1                 1
    0.01218470558                 1                 1      0.9999996869      0.9923757327      0.7942569203      0.9992114336      0.9999999144                 1                 1                 1                 1                 1                 1                 1                 1                 1                 1
    0.01243513799                 1                 1      0.9999996458      0.9919617154      0.7860526829      0.9991568115       0.999999903                 1                 1                 1                 1                 1                 1                 1                 1                 1                 1
    0.01268557041                 1                 1      0.9999996132      0.9915299361      0.7776191126      0.9990991308      0.9999998899                 1                 1                 1                 1                 1                 1                 1                 1                 1                 1
    0.01293600282                 1                 1      0.9999995811      0.9910796082      0.7689517225      0.9990382605      0.9999998747                 1                 1                 1                 1                 1                 1                 1                 1                 1                 1
    0.01318643523                 1                 1      0.9999995468      0.9906098989      0.7600464329      0.9989740663      0.9999998573                 1                 1                 1                 1                 1                 1                 1                 1                 1                 1
    0.01343686765                 1                 1      0.9999995092      0.9901199437      0.7508999849        0.99890641      0.9999998374                 1                 1                 1                 1                 1                 1                 1                 1                 1                 1
    0.01368730006                 1                 1      0.9999994676      0.9896088647      0.7415108478      0.9988351498      0.9999998147                 1                 1                 1                 1                 1                 1                 1                 1                 1                 1
    0.01393773247                 1                 1      0.9999994214      0.9890758036       0.731881667      0.9987601401      0.9999997889                 1                 1                 1                 1                 1                 1                 1                 1                 1                 1
    0.01418816489                 1                 1      0.9999993703      0.9885200413      0.7220282459      0.9986812397      0.9999997597                 1                 1                 1                 1                 1                 1                 1                 1                 1                 1
     0.0144385973                 1                 1      0.9999993135      0.9879417293      0.7120408228      0.9985983702      0.9999997266                 1                 1                 1                 1                 1                 1                 1                 1                 1                 1
    0.01468902971                 1                 1      0.9999992182      0.9873552377      0.7035677597      0.9985123728      0.9999996892                 1                 1                 1                 1                 1                 1                 1                 1                 1                 1
    0.01493946213                 1                 1      0.9999991024       0.986807065      0.7007437519      0.9984271817      0.9999996473                 1                 1                 1                 1                 1                 1                 1                 1                 1                 1
    0.01518989454                 1                 1       0.999998973      0.9862920701      0.6986960023      0.9983466563       0.999999601                 1                 1                 1                 1                 1                 1                 1                 1                 1                 1
    0.01544032695                 1                 1      0.9999988343      0.9857989977      0.6966883838      0.9982720994      0.9999995508                 1                 1                 1                 1                 1                 1                 1                 1                 1                 1
    0.01569075937                 1                 1      0.9999986905      0.9853108354      0.6946546024      0.9982016341       0.999999498                 1                 1                 1                 1                 1                 1                 1                 1                 1                 1
    0.01594119178                 1                 1       0.999998546      0.9848152498        0.69257073      0.9981318906      0.9999994441                 1                 1                 1                 1                 1                 1                 1                 1                 1                 1
    0.01619162419                 1                 1      0.9999984042      0.9843069433      0.6904390905      0.9980599837      0.9999993902                 1                 1                 1                 1                 1                 1                 1                 1                 1                 1
    0.01644205661                 1                 1      0.9999982664      0.9837867997      0.6882768342      0.9979845639      0.9999993371                 1                 1                 1                 1                 1                 1                 1                 1                 1                 1