# Probe 0 (3.4 0.005 1.5)
# Probe 1 (4.4 0.005 1.5)
# Probe 2 (5.4 0.005 1.5)
# Probe 3 (5.9 0.005 1.5)
# Probe 4 (6.2 0.005 1.5)
# Probe 5 (6.7 0.005 1.5)
# Probe 6 (8.2 0.005 1.5)
#           Probe                 0                 1                 2                 3                 4                 5                 6
#            Time
    1.1999904e-06     0.09999960001     0.09999960001     0.09999960001     0.09999960001     0.09999960001     0.09999960001     0.09999960001
  2.639965056e-06     0.09999912003     0.09999912003     0.09999912003     0.09999912003     0.09999912003     0.09999912003     0.09999912003
  4.367944597e-06     0.09999854405     0.09999854405     0.09999854405     0.09999854405     0.09999854405     0.09999854405     0.09999854405
  6.441505713e-06      0.0999978529      0.0999978529      0.0999978529      0.0999978529      0.0999978529      0.0999978529      0.0999978529
   8.92973777e-06     0.09999702355     0.09999702355     0.09999702355     0.09999702355     0.09999702355     0.09999702355     0.09999702355
  1.191552707e-05     0.09999602839     0.09999602839     0.09999602839     0.09999602839     0.09999602839     0.09999602839     0.09999602839
  1.549838863e-05     0.09999483426     0.09999483426     0.09999483426     0.09999483426     0.09999483426     0.09999483426     0.09999483426
  1.979776087e-05     0.09999340138     0.09999340138     0.09999340138     0.09999340138     0.09999340138     0.09999340138     0.09999340138
  2.495674128e-05     0.09999168209     0.09999168209     0.09999168209     0.09999168209     0.09999168209     0.09999168209     0.09999168209
  3.114713435e-05     0.09998961917     0.09998961917     0.09998961917     0.09998961917     0.09998961917     0.09998961917     0.09998961917
  3.857523794e-05     0.09998714396     0.09998714396     0.09998714396     0.09998714396     0.09998714396     0.09998714396     0.09998714396
  4.748896225e-05     0.09998417393     0.09998417393     0.09998417393     0.09998417393     0.09998417393     0.09998417393     0.09998417393
  5.818543142e-05     0.09998061023     0.09998061023     0.09998061023     0.09998061023     0.09998061023     0.09998061023     0.09998061023
  7.102064463e-05     0.09997633445     0.09997633445     0.09997633445     0.09997633445     0.09997633445     0.09997633445     0.09997633445
  8.642131685e-05     0.09997120472     0.09997120472     0.09997120472     0.09997120472     0.09997120472     0.09997120472     0.09997120472
  0.0001049009832     0.09996505043     0.09996505041     0.09996505041     0.09996505041     0.09996505041     0.09996505041     0.09996505041
  0.0001270765827      0.0999576667     0.09995766666     0.09995766666     0.09995766666     0.09995766666     0.09995766666     0.09995766666
  0.0001536896689     0.09994880752     0.09994880742     0.09994880742     0.09994880742     0.09994880742     0.09994880742     0.09994880742
  0.0001856219625     0.09993818066     0.09993818041     0.09993818041     0.09993818041     0.09993818041     0.09993818041     0.09993818041
  0.0002239407148     0.09992543287     0.09992543223     0.09992543223     0.09992543223     0.09992543223     0.09992543223     0.09992543223
  0.0002699019884     0.09991014919     0.09991014756     0.09991014757     0.09991014757     0.09991014757     0.09991014757     0.09991014757
  0.0003250351347     0.09989182559      0.0998918215      0.0998918215      0.0998918215      0.0998918215      0.0998918215      0.0998918215
  0.0003911802278     0.09986985791     0.09986984769      0.0998698477      0.0998698477      0.0998698477      0.0998698477      0.0998698477
  0.0004705543394     0.09984352257     0.09984349723     0.09984349724     0.09984349724     0.09984349724     0.09984349724     0.09984349724
  0.0005658032734     0.09981196496     0.09981190272     0.09981190273     0.09981190274     0.09981190274     0.09981190274     0.09981190274
  0.0006799700095     0.09977422108     0.09977407047     0.09977407047     0.09977407049     0.09977407049     0.09977407049     0.09977407049
  0.0008169700928     0.09972908278     0.09972872548     0.09972872544     0.09972872549     0.09972872549     0.09972872549     0.09972872549
  0.0009814618316     0.09967518147     0.09967435841     0.09967435827     0.09967435838     0.09967435838     0.09967435838     0.09967435838
   0.001179117227     0.09961095633     0.09960914153     0.09960914106     0.09960914131     0.09960914132     0.09960914132     0.09960914132
   0.001416111804     0.09953485061     0.09953110454     0.09953110306      0.0995311036     0.09953110362     0.09953110362     0.09953110362
   0.001666544217     0.09945543707     0.09944883298     0.09944882868     0.09944882974     0.09944882978     0.09944882978     0.09944882978
   0.001916976631     0.09937682035     0.09936675755     0.09936674637     0.09936674821     0.09936674829      0.0993667483      0.0993667483
   0.002167409044     0.09929857081     0.09928488251      0.0992848558     0.09928485873      0.0992848589     0.09928485892     0.09928485892
   0.002417841458     0.09922011618     0.09920321509     0.09920315619     0.09920316054     0.09920316087     0.09920316091     0.09920316092
   0.002668273871     0.09914089851     0.09912176695     0.09912164676     0.09912165285     0.09912165344     0.09912165354     0.09912165354
   0.002918706284     0.09906051944      0.0990405548      0.0990403268     0.09904033488     0.09904033587     0.09904033607     0.09904033607
   0.003169138698     0.09897883103     0.09895960107     0.09895919638     0.09895920655     0.09895920812     0.09895920847     0.09895920849
   0.003419571111     0.09889595392     0.09887893012     0.09887825365     0.09887826561     0.09887826799     0.09887826861     0.09887826865
   0.003670003524     0.09881226339     0.09879856981     0.09879749914     0.09879751199     0.09879751541     0.09879751647     0.09879751655
   0.003920435938      0.0987282441     0.09871854433     0.09871693313     0.09871694494     0.09871694962     0.09871695131     0.09871695146
   0.004170868351     0.09864436071     0.09863886985     0.09863655644     0.09863656378     0.09863656982      0.0986365724     0.09863657267
   0.004421300765     0.09856098256     0.09855954843     0.09855637023     0.09855636798     0.09855637525     0.09855637902     0.09855637947
   0.004671733178     0.09847839549       0.098480563     0.09847637711     0.09847635838     0.09847636633     0.09847637158     0.09847637234
   0.004922165591     0.09839679275     0.09840186692     0.09839657721     0.09839653257     0.09839654008     0.09839654701     0.09839654822
   0.005172598005     0.09831621283     0.09832338679     0.09831697504     0.09831689198     0.09831689713     0.09831690575     0.09831690759
   0.005423030418     0.09823651452     0.09824501948     0.09823757547     0.09823743712     0.09823743712     0.09823744704     0.09823744976
   0.005673462831     0.09815746456     0.09816664288     0.09815838535     0.09815816864     0.09815815992     0.09815817019     0.09815817404
   0.005923895245     0.09807885909     0.09808813351     0.09807941263     0.09807908752     0.09807906565     0.09807907451     0.09807907973
   0.006174327658     0.09800057976     0.09800939037      0.0980006664     0.09800019473      0.0980001547      0.0980001594     0.09800016616
   0.006424760072     0.09792260021     0.09793035954     0.09792215616     0.09792149211     0.09792142752     0.09792142433     0.09792143264
   0.006675192485     0.09784496019     0.09785105203      0.0978438909     0.09784298253     0.09784288443     0.09784286892     0.09784287849
   0.006925624898     0.09776770388      0.0977715497     0.09776587747      0.0977646698     0.09776452612     0.09776449291     0.09776450305
   0.007176057312     0.09769084681     0.09769199855     0.09768811868     0.09768655886     0.09768635374     0.09768629624     0.09768630564
   0.007426489725     0.09761436398     0.09761259209     0.09761061294     0.09760865742     0.09760837109     0.09760828086     0.09760828749
   0.007676922139     0.09753818607     0.09753353251     0.09753334466     0.09753096811     0.09753057732     0.09753044307     0.09753044413
   0.007927354552     0.09746223661     0.09745501205     0.09745629386     0.09745349942     0.09745297815     0.09745278497      0.0974527768
   0.008177786965     0.09738644393     0.09737717508     0.09737942341     0.09737625292     0.09737557371      0.0973753024     0.09737528033
   0.008428219379     0.09731071695     0.09730011782     0.09730270509     0.09729924641     0.09729838276     0.09729800949     0.09729796754
   0.008678651792     0.09723489848     0.09722383711     0.09722607915     0.09722246799     0.09722139773     0.09722089405      0.0972208243
   0.008929084205     0.09715883914     0.09714828417     0.09714950614     0.09714591946     0.09714462891     0.09714396249     0.09714385445
   0.009179516619     0.09708242538     0.09707335322     0.09707295314     0.09706959278     0.09706808139     0.09706721736     0.09706705732
   0.009429949032     0.09700559815     0.09699889556     0.09699640671     0.09699347378     0.09699175855      0.0969906619     0.09699043229
   0.009680381446     0.09692836873     0.09692472822     0.09691987813     0.09691754223     0.09691566107     0.09691429991     0.09691397873
   0.009930813859     0.09685082596     0.09685064352     0.09684340447     0.09684177286     0.09683978585     0.09683813566     0.09683769604
    0.01018124627     0.09677311779     0.09677642338     0.09676704698     0.09676613769     0.09676412519     0.09676217363     0.09676158365
    0.01043167869     0.09669544298      0.0967018623     0.09669088424     0.09669060981     0.09668866618     0.09668641814     0.09668564106
     0.0106821111     0.09661803058      0.0966267947     0.09661499985     0.09661516741     0.09661339068     0.09661087277      0.0966098678
    0.01093254351     0.09654111312      0.0965511222      0.0965394658     0.09653979745     0.09653827614     0.09653553976     0.09653426349
    0.01118297593      0.0964648972     0.09647483309     0.09646432303     0.09646449856     0.09646329752     0.09646041926     0.09645882781
    0.01143340834     0.09638953533      0.0963980234     0.09638956848     0.09638928223     0.09638843015     0.09638550871     0.09638356048
    0.01168384075       0.096315104      0.0963208931     0.09631514853     0.09631417116       0.096313653      0.0963108022     0.09630846126
    0.01193427317     0.09624158679     0.09624371104     0.09624096039     0.09623919455     0.09623895177     0.09623628992     0.09623352991
    0.01218470558     0.09616886893     0.09616679545     0.09616686752     0.09616438414     0.09616432381     0.09616196091     0.09615876942
    0.01243513799     0.09609673807     0.09609045471     0.09609271174     0.09608975477     0.09608976604     0.09608779152     0.09608417397
    0.01268557041     0.09602493639     0.09601495399     0.09601835568      0.0960153152     0.09601529158      0.0960137644     0.09600974715
    0.01293600282     0.09595320613     0.09594046136     0.09594370162     0.09594105085     0.09594091466     0.09593985788     0.09593548982
    0.01318643523     0.09588134041     0.09586702912     0.09586872049     0.09586692638     0.09586664987     0.09586605068      0.0958614031
    0.01343686765     0.09580920436     0.09579459422     0.09579346857     0.09579289212      0.0957925075     0.09579232377     0.09578748847
    0.01368730006     0.09573674633      0.0957230053     0.09571808952     0.09571889396     0.09571848995     0.09571866197     0.09571374771
    0.01393773247     0.09566399741     0.09565206158     0.09564280102     0.09564488653     0.09564459073     0.09564505509     0.09564018287
    0.01418816489     0.09559105979      0.0955815424     0.09556786745     0.09557085004     0.09557079707     0.09557149865     0.09556679625
     0.0144385973      0.0955180843     0.09551122958     0.09549355947     0.09549679894     0.09549709599     0.09549799397     0.09549359024
    0.01468902971     0.09544524038     0.09544090903     0.09542010687     0.09542279361     0.09542348016     0.09542454797     0.09542056721
    0.01493946213     0.09537266875     0.09537039305     0.09534765048     0.09534893688     0.09534995279     0.09535117258     0.09534772922
    0.01518989454     0.09530043663     0.09529953911     0.09527621182     0.09527536464     0.09527653896     0.09527788447     0.09527507775
    0.01544032695      0.0952285053     0.09522826966       0.095205673     0.09520222569     0.09520328789     0.09520470493     0.09520261329
    0.01569075937     0.09515671174     0.09515658754     0.09513579743     0.09512965642      0.0951302713     0.09513165981     0.09513033488
    0.01594119178      0.0950847957     0.09508456997     0.09506627515     0.09505775609     0.09505757679      0.0950587786     0.09505823959
    0.01619162419     0.09501247222      0.0950123209     0.09499677016     0.09498656218     0.09498529473     0.09498609268     0.09498632212
    0.01644205661      0.0949395211      0.0949399429     0.09492697585     0.09491603468     0.09491350233     0.09491363785     0.09491457431
    0.01669248902     0.09486585646       0.094867532     0.09485667315     0.09484605544     0.09484224831      0.0948414521     0.09484298501
    0.01694292143     0.09479155511     0.09479574382     0.09478594583     0.09477644859     0.09477153926     0.09476957204     0.09477154009
    0.01719335385     0.09471684894     0.09472481857     0.09471482865     0.09470699372     0.09470133053     0.09469803112     0.09470022283
    0.01744378626     0.09464208895      0.0946541469     0.09464360224      0.0946374605     0.09463152867     0.09462685497      0.0946290148
    0.01769421867     0.09456768481     0.09458320319       0.094572582     0.09456764783     0.09456199263     0.09455605655     0.09455789725
    0.01794465109      0.0944940308     0.09451179786     0.09450189107     0.09449742609     0.09449255529     0.09448563158     0.09448685286
     0.0181950835     0.09442143696     0.09443958677     0.09443141821     0.09442675859     0.09442303749     0.09441555515     0.09441586778
    0.01844551591     0.09435008793     0.09436642466     0.09436084553     0.09435571588     0.09435327654     0.09434578073     0.09434493354
    0.01869594833     0.09428003005     0.09429250271     0.09428974311     0.09428445854     0.09428316286     0.09427624153     0.09427404884
    0.01894638074     0.09421117415      0.0942182689     0.09421772693     0.09421318822     0.09421266341     0.09420685438     0.09420322067
    0.01919681315     0.09414331277     0.09414429488     0.09414462878     0.09414209025     0.09414183691     0.09413753073     0.09413246971
    0.01944724557     0.09407613254     0.09407114302     0.09407059951     0.09407125503     0.09407080672     0.09406816706     0.09406181093
    0.01969767798     0.09400929633     0.09399928685     0.09399613711      0.0940006745     0.09399976014     0.09399868591     0.09399128117
    0.01994811039     0.09394249828     0.09392901159     0.09392191547     0.09393022705     0.09392888419     0.09392903062     0.09392091796
    0.02019854281      0.0938755105     0.09386037984     0.09384862694     0.09385972734     0.09385832361      0.0938591826     0.09385076124
    0.02044897522     0.09380819872     0.09379324865     0.09377687771     0.09378900116     0.09378814287     0.09378916862     0.09378084915
    0.02069940763     0.09374051188      0.0937273166     0.09370707082      0.0937179724     0.09371830946     0.09371906053     0.09371121324
    0.02094984005     0.09367245318     0.09366218207     0.09363929377      0.0936467297     0.09364870759     0.09364896468     0.09364187425
    0.02120027246     0.09360404212     0.09359740925     0.09357327546     0.09357553827     0.09357918432     0.09357900273     0.09357283979
    0.02145070487     0.09353528592     0.09353258419     0.09350846979     0.09350478908     0.09350961362     0.09350928892     0.09350410388
    0.02170113729     0.09346617212      0.0934673492     0.09344418173     0.09343490129     0.09343995306     0.09343990627     0.09343564778
     0.0219515697     0.09339668053     0.09340143499     0.09337969074      0.0933662091     0.09337027546     0.09337088964     0.09336744159
    0.02220200211      0.0933268079     0.09333468243     0.09331438896     0.09329884981     0.09330076868     0.09330221908     0.09329944617
    0.02245243453     0.09325659512     0.09326706273     0.09324789431     0.09323269896     0.09323169459     0.09323382953     0.09323161541
    0.02270286694     0.09318613986     0.09319866481     0.09318010643       0.093167401     0.09316330207     0.09316563202      0.0931638994
    0.02295329935     0.09311560533     0.09312962181     0.09311118773      0.0931024491     0.09309573736     0.09309754333     0.09309624873
    0.02320373177     0.09304521426     0.09306012869     0.09304149974     0.09303727848     0.09302899428     0.09302951126     0.09302861956
    0.02345416418     0.09297522841     0.09299040609     0.09297150682     0.09297139213     0.09296290455     0.09296153071     0.09296097894
    0.02370459659     0.09290591678      0.0929206674     0.09290166765     0.09290447432     0.09289715881     0.09289364472     0.09289330924
    0.02395502901     0.09283751834     0.09285109685     0.09283233813     0.09283645859     0.09283137121     0.09282592579     0.09282561095
    0.02420546142     0.09277020759      0.0927818425     0.09276371695     0.09276752701      0.0927651784     0.09275844701     0.09275790338
    0.02445589384     0.09270407049     0.09271306761     0.09269583984     0.09269805122     0.09269833364     0.09269125525     0.09269022294
    0.02470632625     0.09263909131     0.09264497133     0.09262860892     0.09262849917     0.09263076669     0.09262435253     0.09262261943
    0.02495675866     0.09257514293     0.09257770602      0.0925618488     0.09255932633     0.09256259221     0.09255769094     0.09255515064
    0.02520719108     0.09251198622     0.09251136075     0.09249537224     0.09249088453     0.09249407384     0.09249118474     0.09248787577
    0.02545762349     0.09244929212     0.09244594768     0.09242903478     0.09242335802     0.09242556091     0.09242473706     0.09242084812
     0.0257080559     0.09238669411      0.0923813886     0.09236276425     0.09235674656     0.09235740064     0.09235826902     0.09235410749
    0.02595848832     0.09232384493      0.0923175242     0.09229656248     0.09229089538     0.09228986197      0.0922917385     0.09228767362
    0.02620892073     0.09226040601     0.09225414046     0.09223048416     0.09222555699     0.09222307998     0.09222514818     0.09222154161
    0.02645935314     0.09219609648     0.09219100072     0.09216460187     0.09216046566     0.09215703988     0.09215854499     0.09215568049
    0.02670978556     0.09213075072     0.09212786246     0.09209897047     0.09209540772     0.09209160254     0.09209200385      0.0920900354
    0.02696021797     0.09206434561     0.09206450107     0.09203360391     0.09203026425     0.09202655935     0.09202560957     0.09202453381
    0.02721065038     0.09199700887     0.09200072436     0.09196846935     0.09196501648     0.09196169516     0.09195943517     0.09195909487
     0.0274610828     0.09192899704      0.0919363888     0.09190349948     0.09189972072     0.09189684202     0.09189352832     0.09189364146
    0.02771151521     0.09186064725     0.09187141369     0.09183861836     0.09183446833     0.09183191234     0.09182790803     0.09182811311
    0.02796194762     0.09179231666     0.09180578141     0.09177376448     0.09176934356     0.09176690634      0.0917625691      0.0917624776
    0.02821238004     0.09172432255     0.09173952356     0.09170890065     0.09170439105     0.09170189356     0.09169749148     0.09169673882
    0.02846281245     0.09165689619     0.09167272866     0.09164401166      0.0916396029     0.09163697528     0.09163265123      0.0916309387
    0.02871324486     0.09159015835      0.0916055399     0.09157909338     0.09157492744     0.09157224196     0.09156802904     0.09156515229
    0.02896367728     0.09152411833     0.09153815032     0.09151413685     0.09151029311      0.0915077386     0.09150361322     0.09149947692
    0.02921410969     0.09145869301     0.09147079037     0.09144911642     0.09144563621      0.0914434483     0.09143939612     0.09143401765
     0.0294645421     0.09139373845     0.09140370802     0.09138399035     0.09138092124      0.0913792976     0.09137536652     0.09136887029
    0.02971497452     0.09132908698      0.0913371426     0.09131871478     0.09131614789     0.09131517998     0.09131150191     0.09130410515
    0.02996540693     0.09126458113     0.09127129752     0.09125326513     0.09125134454     0.09125098894     0.09124776358     0.09123975509
    0.03021583934     0.09120009921      0.0912063183     0.09118765609     0.09118655239     0.09118664981     0.09118409662     0.09117581046
    0.03046627176      0.0911355755     0.09114227696     0.09112196062     0.09112181469     0.09112214787      0.0911204425     0.09111222942
    0.03071670417     0.09107097979     0.09107914794     0.09105627849     0.09105713537     0.09105750237     0.09105672039     0.09104891869
    0.03096713658     0.09100634918     0.09101688853      0.0909907661     0.09099252199     0.09099279687     0.09099288341     0.09098578943
      0.031217569     0.09094175338      0.0909553923     0.09092558342     0.09092796647     0.09092812494     0.09092890156     0.09092274329
    0.03146800141     0.09087728593     0.09089449912     0.09086087588     0.09086346824     0.09086357167     0.09086477694     0.09085969442
    0.03171843382     0.09081304699     0.09083401739     0.09079675426     0.09079904909     0.09079919558     0.09080054595     0.09079658188
    0.03196886624     0.09074912556      0.0907737465     0.09073328425     0.09073476017     0.09073502299     0.09073627503     0.09073337781
    0.03221929865     0.09068558441     0.09071349604     0.09067048578     0.09067067859     0.09067105533     0.09067205008     0.09067009021
    0.03246973106     0.09062245029     0.09065310215     0.09060834101     0.09060689532     0.09060728537     0.09060796229     0.09060675975
    0.03272016348     0.09055971222     0.09059244049     0.09054680534     0.09054349918     0.09054371526     0.09054409338     0.09054345156
    0.03297059589     0.09049732747     0.09053143781     0.09048581338     0.09048056149     0.09048036845     0.09048050368     0.09048024349
     0.0332210283      0.0904352342     0.09047007837     0.09042527609     0.09041812529     0.09041729155     0.09041722523     0.09041721206
    0.03347146072      0.0903733662     0.09040839474     0.09036507394     0.09035620086     0.09035454581     0.09035426112     0.09035441844
    0.03372189313     0.09031166665     0.09034644419     0.09030505314     0.09029476643     0.09029219139     0.09029159106     0.09029189719
    0.03397232554     0.09025009831     0.09028428943     0.09024503041     0.09023377139     0.09023027012     0.09022918177     0.09022965031
    0.03422275796     0.09018864465     0.09022198521     0.09018480735     0.09017313914     0.09016879222     0.09016699926     0.09016764769
    0.03447319037     0.09012729706     0.09015957295     0.09012419309     0.09011276977     0.09010773008     0.09010501956      0.0901058335
    0.03472362278     0.09006604306     0.09009709278     0.09006303142     0.09005254292     0.09004701958     0.09004323517     0.09004413681
     0.0349740552     0.09000485414     0.09003458573     0.09000122654     0.08999232293     0.08998656809     0.08998165539     0.08998248521
    0.03522448761     0.08994367935     0.08997209163       0.089938762     0.08993196784     0.08992626616     0.08992030075     0.08992081863
    0.03547492002      0.0898824503     0.08990964692     0.08987570855     0.08987134346     0.08986599915      0.0898591933     0.08985910038
    0.03572535244     0.08982109901     0.08984729112     0.08981221941     0.08981034101     0.08980565739     0.08979834497     0.08979732293
    0.03597578485     0.08975958049     0.08978507801     0.08974851344     0.08974889534     0.08974514491     0.08973774716     0.08973550785
    0.03622621726     0.08969788954     0.08972307341     0.08968484763      0.0896869995     0.08968438787     0.08967736445      0.0896737002
    0.03647664968     0.08963607037     0.08966134597     0.08962148176     0.08962471223     0.08962334219     0.08961713453     0.08961195974
    0.03672708209     0.08957421469     0.08959995953     0.08955863994     0.08956215555     0.08956199969     0.08955697461     0.08955035022
     0.0369775145     0.08951245153     0.08953896416     0.08949647498     0.08949950242     0.08950039225     0.08949679327     0.08948892904
    0.03722794692     0.08945092643     0.08947838801     0.08943504259     0.08943695507     0.08943859241     0.08943650553     0.08942773926
    0.03747837933     0.08938976934     0.08941823474     0.08937429269     0.08937471649     0.08937670845     0.08937604815     0.08936680539
    0.03772881174     0.08932906062     0.08935849038     0.08931408289     0.08931295938     0.08931487352     0.08931539238     0.08930613301
    0.03797924416     0.08926881083     0.08929913605     0.08925421458     0.08925179718     0.08925322907     0.08925455111     0.08924571132
    0.03822967657     0.08920895667      0.0892401608     0.08919448343     0.08919126341     0.08919190479     0.08919357854     0.08918551756
    0.03848010898     0.08914937392     0.08918156582     0.08913472988     0.08913130448     0.08913099779      0.0891325623     0.08912552224
     0.0387305414      0.0890899214     0.08912335404     0.08907487455     0.08907179027     0.08907055586      0.0890716095     0.08906569437
    0.03898097381     0.08903046181      0.0890655094      0.0890149283      0.0890125406     0.08901056805     0.08901082927      0.0890060056
    0.03923140622     0.08897087818     0.08900797719     0.08895497437     0.08895336341      0.0889509664     0.08895031526     0.08894643252
    0.03948183864     0.08891108114     0.08895065426     0.08889512983     0.08889409543     0.08889163895     0.08889013099     0.08888695755
    0.03973227105     0.08885101689     0.08889339433     0.08883550145     0.08883463524     0.08883245259     0.08883030082     0.08882756892
    0.03998270346     0.08879067679     0.08883602835     0.08877615218     0.08877496059     0.08877328025      0.0887708077      0.0887682601
    0.04023313588     0.08873010085     0.08877839375     0.08871708784     0.08871512621      0.0887140266      0.0887115983     0.08870902863
    0.04048356829     0.08866937854     0.08872036233     0.08865826496     0.08865524353     0.08865464672     0.08865259387     0.08864987475
     0.0407340007     0.08860863869     0.08866186207     0.08859961255     0.08859544894     0.08859515319      0.0885937049     0.08859080029
    0.04098443312       0.088548028     0.08860288242     0.08854105675     0.08853586998      0.0885356093     0.08853484679     0.08853180807
    0.04123486553     0.08848768331     0.08854346029     0.08848253854      0.0884765986     0.08847611084     0.08847595391     0.08847290157
    0.04148529795     0.08842770701     0.08848368244     0.08842402045     0.08841767699     0.08841676152     0.08841698961     0.08841408478
    0.04173573036     0.08836814798     0.08842369026      0.0883654844     0.08835909733     0.08835764862     0.08835795064     0.08835536197
    0.04198616277      0.0883090169     0.08836367463     0.08830692589     0.08830081243     0.08829882511     0.08829886561     0.08829673747
    0.04223659519     0.08825038144     0.08830385585     0.08824834965     0.08824275241     0.08824030176     0.08823978834     0.08823821528
     0.0424870276      0.0881920406     0.08824445796     0.08818976893     0.08818484173     0.08818205022     0.08818078734     0.08817979888
    0.04273746001      0.0881337462     0.08818568238     0.08813120689     0.08812701331     0.08812401507     0.08812193344      0.0881214909
    0.04298789243     0.08807517488     0.08812767168     0.08807269662     0.08806921741     0.08806613081     0.08806328783     0.08806329275
    0.04323832484     0.08801606231        0.08807048     0.08801427748     0.08801142551     0.08800833865     0.08800489267     0.08800520406
    0.04348875725     0.08795630256     0.08801406956     0.08795598811     0.08795362975     0.08795059914     0.08794676602     0.08794722201
    0.04373918967     0.08789596702     0.08795830919     0.08789785966     0.08789583963     0.08789289825     0.08788890189      0.0878893408
    0.04398962208     0.08783526653     0.08790299878     0.08783991248     0.08783807675     0.08783524657      0.0878312751      0.0878315513
    0.04424005449     0.08777446716      0.0878479082     0.08778215785     0.08778036867     0.08777767279     0.08777384945     0.08777384138
    0.04449048691     0.08771382375     0.08779281321     0.08772460369     0.08772274298     0.08772021367     0.08771658725     0.08771619693
    0.04474091932     0.08765353972     0.08773752142     0.08766726123     0.08766522268      0.0876629028     0.08765945774     0.08765860382
    0.04499135173     0.08759375849     0.08768188761     0.08761014775     0.08760782402     0.08760576089     0.08760244238     0.08760105043
    0.04524178415     0.08753456548     0.08762582309     0.08755328158     0.08755055723     0.08754878946     0.08754553599      0.0875435304