# Probe 0 (2.4 0 1.5)
#           Probe                 0
#            Time
    1.1999904e-06      0.9999683232
  2.639965056e-06       0.999930307
  4.367944597e-06      0.9998846792
  6.441505713e-06      0.9998299138
   8.92973777e-06      0.9997641782
  1.191552707e-05      0.9996852715
  1.549838863e-05      0.9995905475
  1.979776087e-05      0.9994768255
  2.495674128e-05      0.9993402871
  3.114713435e-05      0.9991763373
  3.857523794e-05      0.9989794432
  4.748896225e-05      0.9987429342
  5.818543142e-05       0.998458783
  7.102064463e-05       0.998117326
  8.642131685e-05      0.9977069136
  0.0001049009832       0.997213432
  0.0001270765827       0.996619789
  0.0001536896689      0.9959052431
  0.0001856219625      0.9950448395
  0.0002239407148      0.9940079771
  0.0002699019884      0.9927580165
  0.0003250351347      0.9912495512
  0.0003911802278      0.9894267329
  0.0004705543394      0.9872204859
  0.0005658032734      0.9845455998
  0.0006799700095      0.9812993434
  0.0008169700928       0.977344103
  0.0009814618316      0.9725042274
   0.001179117227      0.9665478247
   0.001416111804      0.9591909682
   0.001666544217      0.9511681058
   0.001916976631      0.9429211008
   0.002167409044       0.934454424
   0.002417841458      0.9257458352
   0.002668273871      0.9167739837
   0.002918706284      0.9075237057
   0.003169138698      0.8979873475
   0.003419571111      0.8881624972
   0.003670003524      0.8780458034
   0.003920435938      0.8676285617
   0.004170868351      0.8568985593
   0.004421300765      0.8458443086
   0.004671733178      0.8344571216
   0.004922165591      0.8227297338
   0.005172598005      0.8106539778
   0.005423030418      0.7982202824
   0.005673462831      0.7854186267
   0.005923895245      0.7722391793
   0.006174327658      0.7586722119
   0.006424760072      0.7447077386
   0.006675192485      0.7303354241
   0.006925624898      0.7155448982
   0.007176057312      0.7003260066
   0.007426489725      0.6846686076
   0.007676922139      0.6685624377
   0.007927354552      0.6519970758
   0.008177786965      0.6349620363
   0.008428219379      0.6174470799
   0.008678651792       0.599441736
   0.008929084205      0.5809354814
   0.009179516619      0.5619177521
   0.009429949032      0.5423779662
   0.009680381446      0.5223055182
   0.009930813859      0.5016897668
    0.01018124627      0.4805200099
    0.01043167869      0.4587854664
     0.0106821111      0.4364753234
    0.01093254351      0.4135788063
    0.01118297593      0.3900852921
    0.01143340834      0.3659843292
    0.01168384075      0.3412657444
    0.01193427317       0.315919707
    0.01218470558      0.2899369176
    0.01243513799      0.2633083824
    0.01268557041      0.2360259827
    0.01293600282      0.2080828718
    0.01318643523      0.1794742492
    0.01343686765      0.1501989229
    0.01368730006      0.1202628652
    0.01393773247     0.08968877123
    0.01418816489     0.05855111454
     0.0144385973     0.02721534219
    0.01468902971    0.002196960368
    0.01493946213  -0.0001989292778
    0.01518989454    4.74569973e-05
    0.01544032695   0.0001552273531
    0.01569075937   0.0001603379098
    0.01594119178   0.0001342838159
    0.01619162419   0.0001117140008
    0.01644205661   0.0001042938292
    0.01669248902   0.0001050964813
    0.01694292143   0.0001091092773
    0.01719335385   0.0001131719304
    0.01744378626    0.000113951858
    0.01769421867   0.0001121506467
    0.01794465109   0.0001099108068
     0.0181950835   0.0001083566553
    0.01844551591   0.0001071139767
    0.01869594833   0.0001054938971
    0.01894638074    0.000103460332
    0.01919681315   0.0001013994363
    0.01944724557   9.953538681e-05
    0.01969767798   9.767144751e-05
    0.01994811039   9.560239561e-05
    0.02019854281   9.341829859e-05
    0.02044897522   9.143540571e-05
    0.02069940763   8.990734907e-05
    0.02094984005   8.880207156e-05
    0.02120027246   8.796889883e-05
    0.02145070487    8.72730399e-05
    0.02170113729   8.674752956e-05
     0.0219515697   8.643936743e-05
    0.02220200211    8.62723361e-05
    0.02245243453   8.605767642e-05
    0.02270286694   8.566429863e-05
    0.02295329935   8.513363339e-05
    0.02320373177   8.448139834e-05
    0.02345416418   8.355907075e-05
    0.02370459659   8.218930071e-05
    0.02395502901   8.036239029e-05
    0.02420546142   7.826129163e-05
    0.02445589384   7.610229788e-05
    0.02470632625   7.403822443e-05
    0.02495675866   7.212820486e-05
    0.02520719108   7.036606499e-05
    0.02545762349   6.871452723e-05
     0.0257080559   6.714856547e-05
    0.02595848832    6.56859045e-05
    0.02620892073   6.436452151e-05
    0.02645935314    6.31983129e-05
    0.02670978556     6.2143931e-05
    0.02696021797   6.112266869e-05
    0.02721065038   6.006514511e-05
     0.0274610828   5.894232762e-05
    0.02771151521    5.77685236e-05
    0.02796194762   5.655847772e-05
    0.02821238004   5.531372845e-05
    0.02846281245    5.40345712e-05
    0.02871324486    5.27255331e-05
    0.02896367728   5.201950126e-05
    0.02921410969   5.148100603e-05
     0.0294645421   4.983234408e-05
    0.02971497452   4.906735873e-05
    0.02996540693   4.763484867e-05
    0.03021583934   4.655374415e-05
    0.03046627176   4.645802671e-05
    0.03071670417   4.451124521e-05
    0.03096713658   4.236392576e-05
      0.031217569   4.108875066e-05
    0.03146800141   4.071300241e-05
    0.03171843382   4.057210742e-05
    0.03196886624   4.011496053e-05
    0.03221929865   3.925003115e-05
    0.03246973106   3.819007883e-05
    0.03272016348   3.718609651e-05
    0.03297059589    3.63580031e-05
     0.0332210283   3.566252214e-05
    0.03347146072    3.49851016e-05
    0.03372189313    3.42624189e-05
    0.03397232554   3.348943239e-05
    0.03422275796   3.269146785e-05
    0.03447319037   3.188401955e-05
    0.03472362278   3.108344579e-05
     0.0349740552   3.032480229e-05
    0.03522448761   2.965651855e-05
    0.03547492002   2.908609976e-05
    0.03572535244   2.856594313e-05
    0.03597578485   2.803423437e-05
    0.03622621726   2.744330667e-05
    0.03647664968   2.681160964e-05
    0.03672708209   2.615283449e-05
     0.0369775145     2.5490653e-05
    0.03722794692   2.482331915e-05
    0.03747837933   2.410331615e-05
    0.03772881174   2.327704297e-05
    0.03797924416   2.238403259e-05
    0.03822967657   0.0005162661787
    0.03848010898     0.00118200325
     0.0387305414    0.001896695107
    0.03898097381    0.002611679418
    0.03923140622    0.003312472288
    0.03948183864    0.003998734718
    0.03973227105    0.004671940941
    0.03998270346    0.005330433243
    0.04023313588    0.005976053556
    0.04048356829    0.006612574676
     0.0407340007    0.007237100671
    0.04098443312    0.007846521885
    0.04123486553    0.008438127949
    0.04148529795    0.009010691366
    0.04173573036    0.009559563933
    0.04198616277     0.01008545557
    0.04223659519     0.01059477857
     0.0424870276     0.01109693308
    0.04273746001     0.01159510749
    0.04298789243     0.01209062588
    0.04323832484     0.01258026057
    0.04348875725     0.01306591605
    0.04373918967     0.01355420461
    0.04398962208     0.01405386575
    0.04424005449     0.01456913039
    0.04449048691     0.01509988388
    0.04474091932     0.01564289736
    0.04499135173     0.01619881601
    0.04524178415     0.01676165471
    0.04549221656     0.01733016962
    0.04574264897     0.01788825696
    0.04599308139     0.01844524944
     0.0462435138     0.01899631811
    0.04649394621     0.01955297574
    0.04674437863     0.02010266422
    0.04699481104     0.02064213633
    0.04724524345     0.02117121232
    0.04749567587     0.02169185551
    0.04774610828     0.02220294001
    0.04799654069     0.02270183637
    0.04824697311     0.02318680759
    0.04849740552      0.0236573383
    0.04874783793     0.02411862802
    0.04899827035     0.02457115188
    0.04924870276     0.02501636735
    0.04949913517     0.02545519863
    0.04974956759     0.02589971071
             0.05     0.02634909166
          0.05025     0.02679622074
           0.0505     0.02723779532
          0.05075     0.02767292897
            0.051     0.02810124105
          0.05125     0.02852352336
           0.0515     0.02892997084
          0.05175     0.02932840821
            0.052      0.0297178514
          0.05225     0.03009770454
           0.0525     0.03046962854
          0.05275     0.03084194099
            0.053     0.03122509761
          0.05325     0.03161960302
           0.0535     0.03201645774
          0.05375     0.03240782715
            0.054     0.03279625251
          0.05425     0.03317327026
           0.0545     0.03353624401
          0.05475     0.03388252552
            0.055     0.03422551207
          0.05525     0.03456892054
           0.0555     0.03492335808
          0.05575     0.03529075744
            0.056     0.03566537873
          0.05625     0.03603738729
           0.0565     0.03641180231
          0.05675     0.03677744903
            0.057     0.03713939112
          0.05725     0.03749626971
           0.0575     0.03784559677
          0.05775     0.03818873939
            0.058     0.03852274513
          0.05825     0.03884250416
           0.0585     0.03914766584
          0.05875     0.03944462999
            0.059     0.03973936159
          0.05925     0.04002652537
           0.0595      0.0403087483
          0.05975     0.04058520002
             0.06     0.04085788364
          0.06025     0.04113150532
           0.0605     0.04141063581
          0.06075     0.04169418759
            0.061     0.04197833887
          0.06125     0.04225960014
           0.0615     0.04253736559
          0.06175     0.04281320659
            0.062     0.04308900786
          0.06225     0.04336613437
           0.0625     0.04364474702
          0.06275     0.04392319973
            0.063     0.04419965726
          0.06325      0.0444722427
           0.0635     0.04473957522
          0.06375     0.04500245537
            0.064      0.0452621756
          0.06425     0.04551981331
           0.0645     0.04577532359
          0.06475     0.04602750166
            0.065     0.04627512935
          0.06525     0.04651795533
           0.0655     0.04675688811
          0.06575     0.04699364995
            0.066     0.04722799308
          0.06625     0.04745916357
           0.0665     0.04768917525
          0.06675     0.04791925225
            0.067     0.04814882562
          0.06725     0.04837692501
           0.0675     0.04860232738
          0.06775      0.0488244403
            0.068     0.04904319441
          0.06825      0.0492590158
           0.0685     0.04947263007
          0.06875     0.04968391626
            0.069      0.0498919566
          0.06925     0.05009578388
           0.0695     0.05029515853
          0.06975     0.05049058361
             0.07     0.05068306794
          0.07025     0.05087364583
           0.0705     0.05106313478
          0.07075     0.05125185662
            0.071     0.05143982055
          0.07125     0.05162697106
           0.0715     0.05181338861
          0.07175     0.05199878369
            0.072     0.05218310781
          0.07225     0.05236615976
           0.0725     0.05254800307
          0.07275     0.05272867404
            0.073     0.05290810579
          0.07325     0.05308604076
           0.0735     0.05326234888
          0.07375     0.05343705529
            0.074     0.05361027161
          0.07425     0.05378205464
           0.0745     0.05395201648
          0.07475     0.05411934154
            0.075     0.05428332968
          0.07525     0.05444398961
           0.0755      0.0546023667
          0.07575     0.05475962771
            0.076     0.05491564554
          0.07625     0.05506943513
           0.0765     0.05522009308
          0.07675     0.05536805405
            0.077      0.0555150081
          0.07725     0.05566225499
           0.0775     0.05581016865
          0.07775     0.05595802948
            0.078     0.05610468366
          0.07825     0.05624975387
           0.0785     0.05639405251
          0.07875      0.0565390468
            0.079     0.05668599718
          0.07925     0.05683453883
           0.0795     0.05698329406
          0.07975     0.05713078611
             0.08     0.05727649032
          0.08025     0.05742070662
           0.0805     0.05756388517
          0.08075     0.05770626546
            0.081      0.0578476248
    0.08124675325     0.05798577733
    0.08149350649     0.05812258743
    0.08173701299     0.05825677384
    0.08197731545     0.05838893836
    0.08221761791     0.05852108081
    0.08245471634     0.05865135777
    0.08269181476     0.05878145071
    0.08292570916     0.05890985507
    0.08315960355      0.0590384907
    0.08339029392     0.05916545694
    0.08362098428     0.05929245058
    0.08385167464     0.05941937309
    0.08407911584     0.05954464902
    0.08430655705     0.05966977149
    0.08453399825     0.05979409055
     0.0847581432     0.05991543442
    0.08498228815     0.06003578615
    0.08520643311     0.06015594169
    0.08543057806     0.06027663813
    0.08565132688     0.06039631247
    0.08587207569      0.0605165199
    0.08609282451     0.06063670744
    0.08631357333     0.06075637744
    0.08653432215     0.06087536791
     0.0867515105     0.06099182673
    0.08696869885     0.06110784423
     0.0871858872     0.06122354733
    0.08739945575     0.06133702034
     0.0876130243     0.06145013309
    0.08782659284      0.0615629068
    0.08804016139     0.06167546718
    0.08824998312     0.06178595253
    0.08845980485     0.06189633298
    0.08866962658     0.06200648892
    0.08887563337     0.06211429954
    0.08908164016     0.06222171918
    0.08928764695     0.06232884846
    0.08949365374     0.06243585916
    0.08969569886     0.06254096409
    0.08989774398      0.0626464562
     0.0900997891     0.06275238025
    0.09030183422     0.06285857284
    0.09049975597     0.06296255828
    0.09069767772     0.06306617771
    0.09089559947     0.06316933937
    0.09109352122     0.06327210551
    0.09129144297     0.06337446454
    0.09148936472     0.06347633023
    0.09168278825     0.06357540036
    0.09187621178     0.06367427145
    0.09206963531     0.06377304677
    0.09226305884     0.06387160113
    0.09245648237     0.06396974446
     0.0926499059     0.06406729506
    0.09283836985      0.0641617628
     0.0930268338     0.06425572612
    0.09321529775     0.06434927316
     0.0934037617     0.06444245501
    0.09359222565     0.06453534819
    0.09378068961      0.0646280295
     0.0939636105     0.06471785573
    0.09414653139     0.06480765978
    0.09432945229      0.0648975019
    0.09451237318     0.06498739218
    0.09469529408     0.06507735052
    0.09487821497     0.06516761533
    0.09506113586      0.0652581543
    0.09523752387     0.06534557884
    0.09541391187     0.06543296074
    0.09559029988     0.06552020458
    0.09576668788     0.06560729603
    0.09594307589     0.06569436212
    0.09611946389     0.06578158644
     0.0962958519     0.06586909668
     0.0964722399     0.06595695056
    0.09664862791      0.0660450973
    0.09681619651     0.06612900491
    0.09698376512     0.06621291151
    0.09715133372     0.06629668201
    0.09731890233     0.06638026127
    0.09748647093     0.06646368803
    0.09765403953      0.0665470725
    0.09782160814     0.06663060237
    0.09798917674     0.06671438967
    0.09815674535     0.06679828823
    0.09832431395     0.06688201103
    0.09849188256     0.06696515365
    0.09865945116     0.06704744852
    0.09882701977     0.06712880398
    0.09899458837     0.06720931543
    0.09916215698     0.06728924846
    0.09932972558     0.06736887518
    0.09949729419     0.06744830093
    0.09966486279     0.06752746897
     0.0998324314     0.06760618471
              0.1     0.06768419025
     0.1001612903      0.0677584495
     0.1003220604     0.06783165969
     0.1004823118       0.067904013
     0.1006420463     0.06797579965
     0.1008012655     0.06804725273
     0.1009599711     0.06811842812
     0.1011181647     0.06818921623
      0.101275848     0.06825943259
     0.1014330227     0.06832897193
     0.1015896904     0.06839785507
     0.1017458527     0.06846618171
     0.1019015112     0.06853470462
     0.1020566676     0.06860294527
     0.1022113235     0.06867062802
     0.1023654806     0.06873751942
     0.1025191403     0.06880348949
     0.1026723044     0.06886859486
     0.1028249744     0.06893300037
     0.1029771519     0.06899685719
     0.1031288385     0.06906020987
     0.1032800358     0.06912299337
     0.1034307453     0.06918514814
     0.1035809687     0.06924667124
     0.1037307075     0.06930763874
     0.1038799633       0.069368179
     0.1040287376     0.06942836631
      0.104177032     0.06948813913
      0.104324848     0.06954732298
     0.1044721872     0.06960697425
     0.1046185789     0.06966665478
     0.1047644999     0.06972693591
     0.1049099517     0.06978698193
     0.1050549357     0.06984719677
     0.1051994536     0.06990749906
     0.1053435068     0.06996775945
     0.1054870968      0.0700277454
     0.1056302252     0.07008680658
     0.1057728932     0.07014363626
     0.1059151026     0.07019805873
     0.1060568547     0.07025288938
      0.106198151     0.07030674069
     0.1063389929     0.07035951009
      0.106479382     0.07041169294
     0.1066193197     0.07046516706
     0.1067588074     0.07051810939
     0.1068978466     0.07056986001
     0.1070368858     0.07062035693
     0.1071754765     0.07067026969
     0.1073136201     0.07071948998
     0.1074513181     0.07076824252
     0.1075885719     0.07081659451
     0.1077258257     0.07086543441
     0.1078626354     0.07091330343
     0.1079990022     0.07096052552
     0.1081349278     0.07100722075
     0.1082704135     0.07105364136
     0.1084058991     0.07110036575
     0.1085409449     0.07114692087
     0.1086755523     0.07119242428
     0.1088097225     0.07123704899
     0.1089434572     0.07128197394
     0.1090767577     0.07132666295
     0.1092096253     0.07137082668
      0.109342493     0.07141482872
     0.1094749279     0.07145802689
     0.1096069314     0.07150065477
     0.1097385049     0.07154308954
     0.1098700784      0.0715845299
     0.1100012219     0.07162625865
     0.1101323655     0.07166680797
      0.110263079     0.07170675575
      0.110393364     0.07174637109
      0.110523649     0.07178588543
     0.1106535054     0.07182521218
     0.1107829347     0.07186438325
     0.1109119382     0.07190344301
     0.1110405173      0.0719423926
     0.1111686735     0.07198117552
     0.1112968297     0.07201977483
      0.111424563     0.07205797388
     0.1115518746     0.07209577827
     0.1116791863     0.07213343375
     0.1118060764     0.07217100612
     0.1119329665     0.07220877866
     0.1120594351     0.07224667744
     0.1121854835     0.07228463062
     0.1123115319     0.07232263024
     0.1124371601     0.07236043645
     0.1125623695     0.07239801557
     0.1126871616     0.07243540982
     0.1128119537     0.07247281126
     0.1129363285     0.07251012593
     0.1130602873      0.0725473176
      0.113184246     0.07258442212
     0.1133077888     0.07262122402
     0.1134313316     0.07265781007
     0.1135544584     0.07269410249
     0.1136771707     0.07273021866
      0.113799883      0.0727664219
     0.1139221807      0.0728026869
     0.1140444784     0.07283914065
     0.1141663615     0.07287555419
     0.1142878314     0.07291174621
     0.1144093014     0.07294765011
     0.1145303582     0.07298302238
      0.114651415     0.07301797839
     0.1147720586     0.07305250869
     0.1148927023     0.07308689533
     0.1150129327     0.07312116397
     0.1151331632     0.07315550425
     0.1152529805     0.07318978919
     0.1153723861      0.0732239627
     0.1154917916     0.07325808433
     0.1156107855     0.07329200582
      0.115729369     0.07332573076
     0.1158479525     0.07335939565
     0.1159661256     0.07339289713
     0.1160838899      0.0734262246
     0.1162012467     0.07345934007
     0.1163186035     0.07349230493
     0.1164355528     0.07352496446
      0.116552096     0.07355731973
     0.1166682345      0.0735894221
     0.1167843731     0.07362147195
      0.116900107     0.07365345287
     0.1170154376     0.07368543137
     0.1171307683     0.07371753088
     0.1172456957     0.07374959361
     0.1173602212     0.07378154196
     0.1174747467     0.07381341487
     0.1175888704     0.07384506111
     0.1177025937     0.07387647847
      0.117816317     0.07390779571
     0.1179296398     0.07393891959
     0.1180425636     0.07396986371
     0.1181554874     0.07400075848
     0.1182680122     0.07403154447
     0.1183805369     0.07406241714
     0.1184930617     0.07409348302
     0.1186051861     0.07412471945
     0.1187173104     0.07415626984
     0.1188290343     0.07418797396
     0.1189407582     0.07421983835
     0.1190520816     0.07425161191
     0.1191634051     0.07428328588
     0.1192743281       0.074314665
     0.1193852511     0.07434583072
     0.1194957736     0.07437667528
     0.1196062962     0.07440733144
     0.1197164183     0.07443771773
     0.1198265404     0.07446798985
     0.1199362621     0.07449810807
     0.1200455848     0.07452817451
     0.1201549075      0.0745584214
     0.1202638312      0.0745888525
     0.1203727549     0.07461965008
     0.1204812796     0.07465070094
     0.1205898043     0.07468204287
       0.12069793     0.07471343108
     0.1208060557     0.07474484223
     0.1209137824     0.07477605734
     0.1210211117     0.07480703976
     0.1211284409     0.07483793635
     0.1212353726     0.07486871489
     0.1213419082     0.07489946998
     0.1214484439     0.07493038506
     0.1215545835     0.07496136495
     0.1216603285     0.07499237592
     0.1217660736     0.07502346003
     0.1218714241     0.07505440947
     0.1219767745     0.07508525596
     0.1220817304     0.07511582826
     0.1221866863     0.07514622264
     0.1222912477     0.07517633737
      0.122395809     0.07520631806
     0.1225003703     0.07523620266
     0.1226049317     0.07526602878
     0.1227090954     0.07529571909
     0.1228132592     0.07532542413
     0.1229174229     0.07535519361
     0.1230211876     0.07538497895
     0.1231249523     0.07541497189
     0.1232287169      0.0754452456
     0.1233320809     0.07547572106
      0.123435445     0.07550649194
      0.123538809     0.07553746998
     0.1236417708     0.07556840089
     0.1237447327     0.07559926325
     0.1238476945     0.07562994326
     0.1239502526     0.07566026734
     0.1240528106     0.07569037519
     0.1241553687     0.07572035065
     0.1242575214     0.07575019491
     0.1243596741     0.07578014427
     0.1244618268     0.07581027742
     0.1245639794     0.07584061051
     0.1246657235     0.07587098117
     0.1247674676     0.07590144071
     0.1248692117     0.07593191971
     0.1249709558     0.07596237444
     0.1250726999     0.07599279926
     0.1251740303      0.0760231049
     0.1252753608     0.07605347432
     0.1253766913     0.07608396638
     0.1254780218     0.07611461207
     0.1255789353     0.07614527061
     0.1256798488      0.0761760156
     0.1257807623     0.07620678024
      0.125881257     0.07623738411
     0.1259817518     0.07626793452
     0.1260818278     0.07629831205
     0.1261819039     0.07632866107
     0.1262819799     0.07635898321
     0.1263816355     0.07638912581
      0.126481291     0.07641916541
     0.1265805261     0.07644891763
     0.1266797611     0.07647846965
     0.1267785757     0.07650769853
     0.1268773903     0.07653678208
     0.1269762048     0.07656582193
     0.1270745971     0.07659482927
     0.1271729894     0.07662407267
     0.1272709594     0.07665354734
     0.1273689294     0.07668344963
     0.1274668994     0.07671377871
     0.1275644453     0.07674432251
     0.1276619912      0.0767750747
     0.1277595371     0.07680587655
      0.127856657     0.07683645674
     0.1279537769     0.07686686715
     0.1280508969     0.07689709383
      0.128147589      0.0769270561
      0.128244281     0.07695698414
     0.1283409731     0.07698699103
     0.1284372355     0.07701704338
     0.1285334978     0.07704734149
     0.1286293304     0.07707777028
      0.128725163     0.07710843847
     0.1288209956     0.07713927855
     0.1289163965     0.07717005688
     0.1290117974     0.07720081366
     0.1291067667     0.07723132944
     0.1292017359     0.07726169995
     0.1292967052     0.07729192837
     0.1293912408     0.07732193874
     0.1294857764     0.07735198381
     0.1295803119     0.07738216744
     0.1296744119     0.07741243575
     0.1297685118     0.07744298442
     0.1298626118     0.07747383279
     0.1299567117     0.07750495932
      0.130050372     0.07753615948
     0.1301440322     0.07756750014
     0.1302376924     0.07759890011
     0.1303313526     0.07763029264
      0.130424569     0.07766149528
     0.1305177853     0.07769266112
     0.1306110016     0.07772382582
      0.130704218     0.07775503997
     0.1307969862     0.07778620316
     0.1308897543     0.07781749357
     0.1309825225     0.07784891418
     0.1310752907     0.07788044803
     0.1311680589     0.07791207362
     0.1312603723     0.07794362131
     0.1313526858     0.07797524758
     0.1314449992     0.07800697156
     0.1315373126     0.07803881852
     0.1316296261     0.07807080439
     0.1317219395     0.07810292627
     0.1318137891     0.07813500389
     0.1319056386     0.07816718104
     0.1319974882     0.07819944949
     0.1320893377     0.07823181725
     0.1321811873     0.07826430346
     0.1322725658     0.07829674292
     0.1323639443     0.07832927695
     0.1324553228     0.07836183779
     0.1325462279     0.07839416528
      0.132637133     0.07842632886
      0.132728038      0.0784582448
     0.1328184672     0.07848970147
     0.1329088963     0.07852087381
     0.1329993254     0.07855183073
     0.1330892761     0.07858253451
     0.1331792267     0.07861331056
     0.1332691774     0.07864432852
      0.133359128     0.07867572558
     0.1334485951     0.07870740254
     0.1335380621     0.07873951452
     0.1336275292     0.07877195966
     0.1337169962     0.07880456796
     0.1338059744     0.07883695968
     0.1338949526     0.07886912211
     0.1339839307     0.07890091051
     0.1340729089     0.07893225186
     0.1341613927     0.07896298201
     0.1342498766     0.07899334952
     0.1343383604     0.07902347493
     0.1344268443     0.07905349176
     0.1345153281     0.07908352497
     0.1346038119     0.07911367298
     0.1346917902     0.07914382618
     0.1347797684     0.07917417114
     0.1348677466     0.07920469936
     0.1349557248     0.07923539424
      0.135043703      0.0792662475
     0.1351316812     0.07929731194
     0.1352191419      0.0793284448
     0.1353066026     0.07935986257
     0.1353940633     0.07939158372
      0.135481524     0.07942360915
     0.1355689847     0.07945590447
     0.1356564454     0.07948840511
     0.1357439061     0.07952101377
     0.1358308335     0.07955341733
     0.1359177609     0.07958562408
     0.1360046883     0.07961750382
     0.1360916157     0.07964898633
     0.1361785431     0.07968006637
     0.1362654705     0.07971078732
     0.1363518512     0.07974109928
     0.1364382319     0.07977922135
     0.1365246126     0.07982002442
     0.1366109933     0.07986184612
      0.136697374     0.07990418743
     0.1367837547     0.07994688561
     0.1368701354     0.07998984543
     0.1369559515     0.08003269406
     0.1370417676     0.08007561935
     0.1371275837     0.08011853498
     0.1372133998     0.08016137955
     0.1372992159     0.08020405633
      0.137385032     0.08024656451
     0.1374708481     0.08028885508
     0.1375566642     0.08033091423
     0.1376418926     0.08037235427
     0.1377271209     0.08041337802
     0.1378123492     0.08045400739
     0.1378975775     0.08049423854
     0.1379828059     0.08053407963
     0.1380680342     0.08057361004
     0.1381532625     0.08061300851
     0.1382384908     0.08065245833
      0.138323106     0.08069182239
     0.1384077212     0.08073150262
     0.1384923364     0.08077155999
     0.1385769515       0.080811972
     0.1386615667     0.08085260761
     0.1387461819     0.08089336823
     0.1388307971     0.08093413794
     0.1389154122     0.08097477022
     0.1389993864     0.08101476483
     0.1390833605     0.08105437496
     0.1391673347     0.08109361032
     0.1392513088     0.08113251822
      0.139335283     0.08117120931
     0.1394192571     0.08120981083
     0.1395032313     0.08124845455
     0.1395872054     0.08128724823
     0.1396711796     0.08132625101
     0.1397551537      0.0813654621
     0.1398384452     0.08140450351
     0.1399217366     0.08144354923
      0.140005028     0.08148251974
     0.1400883195     0.08152131113
     0.1401716109     0.08155985243
     0.1402549023      0.0815981334
     0.1403381938     0.08163618064
     0.1404214852     0.08167404583
     0.1405040586     0.08171145047
      0.140586632     0.08174876326
     0.1406692054     0.08178600759
     0.1407517788     0.08182319477
     0.1408343522      0.0818603124
     0.1409169256     0.08189733019
      0.140999499      0.0819342273
     0.1410820724     0.08197104806
     0.1411638883     0.08200749389
     0.1412457041      0.0820439396
       0.14132752     0.08208042302
     0.1414093358     0.08211698924
     0.1414911517     0.08215367308
     0.1415729675     0.08219049575
     0.1416547834     0.08222746359
     0.1417358049      0.0822626465
     0.1418168264      0.0822945464