# Probe 0 (2.4 2.295 1.5)
#           Probe                 0
#            Time
    1.1999904e-06            101325
  2.639965056e-06            101325
  4.367944597e-06            101325
  6.441505713e-06            101325
   8.92973777e-06            101325
  1.191552707e-05            101325
  1.549838863e-05            101325
  1.979776087e-05            101325
  2.495674128e-05            101325
  3.114713435e-05            101325
  3.857523794e-05            101325
  4.748896225e-05            101325
  5.818543142e-05            101325
  7.102064463e-05            101325
  8.642131685e-05            101325
  0.0001049009832            101325
  0.0001270765827            101325
  0.0001536896689            101325
  0.0001856219625            101325
  0.0002239407148            101325
  0.0002699019884            101325
  0.0003250351347            101325
  0.0003911802278            101325
  0.0004705543394            101325
  0.0005658032734            101325
  0.0006799700095            101325
  0.0008169700928            101325
  0.0009814618316            101325
   0.001179117227            101325
   0.001416111804       101325.0001
   0.001666544217       101325.0009
   0.001916976631        101325.004
   0.002167409044        101325.014
   0.002417841458       101325.0419
   0.002668273871       101325.1099
   0.002918706284         101325.26
   0.003169138698       101325.5628
   0.003419571111       101326.1281
   0.003670003524       101327.1117
   0.003920435938       101328.7172
   0.004170868351        101331.186
   0.004421300765       101334.7731
   0.004671733178        101339.705
   0.004922165591       101346.1217
   0.005172598005        101354.006
   0.005423030418       101363.1127
   0.005673462831       101372.9148
   0.005923895245       101382.5896
   0.006174327658       101391.0685
   0.006424760072       101397.1676
   0.006675192485       101399.7966
   0.006925624898       101398.2112
   0.007176057312        101392.249
   0.007426489725       101382.5886
   0.007676922139        101370.496
   0.007927354552       101357.8004
   0.008177786965       101346.5734
   0.008428219379       101338.7295
   0.008678651792       101335.6765
   0.008929084205       101338.0556
   0.009179516619        101345.882
   0.009429949032       101358.5114
   0.009680381446         101374.66
   0.009930813859       101392.5965
    0.01018124627       101410.3462
    0.01043167869       101425.8228
     0.0106821111       101436.9657
    0.01093254351        101441.993
    0.01118297593       101439.7655
    0.01143340834       101430.2038
    0.01168384075       101414.4764
    0.01193427317       101394.6884
    0.01218470558       101373.6396
    0.01243513799       101354.4379
    0.01268557041       101340.0678
    0.01293600282       101332.8859
    0.01318643523       101334.2774
    0.01343686765       101344.2866
    0.01368730006       101361.5568
    0.01393773247       101383.5807
    0.01418816489       101407.3376
     0.0144385973       101429.8877
    0.01468902971       101448.9108
    0.01493946213        101463.037
    0.01518989454       101471.9894
    0.01544032695       101476.5128
    0.01569075937       101477.9252
    0.01594119178       101477.6925
    0.01619162419       101476.9442
    0.01644205661       101476.2074
    0.01669248902       101475.4039
    0.01694292143       101474.0011
    0.01719335385       101471.2394
    0.01744378626        101466.446
    0.01769421867       101459.2696
    0.01794465109       101449.8852
     0.0181950835        101439.088
    0.01844551591       101428.1983
    0.01869594833       101418.8077
    0.01894638074       101412.4405
    0.01919681315       101410.2237
    0.01944724557       101412.6375
    0.01969767798       101419.3575
    0.01994811039        101429.351
    0.02019854281       101441.0628
    0.02044897522       101452.7555
    0.02069940763       101463.0562
    0.02094984005       101471.1654
    0.02120027246        101476.963
    0.02145070487       101480.9156
    0.02170113729       101483.8525
     0.0219515697       101486.6799
    0.02220200211       101490.1073
    0.02245243453       101494.1981
    0.02270286694       101498.3372
    0.02295329935        101501.486
    0.02320373177        101502.491
    0.02345416418       101500.4812
    0.02370459659       101495.1696
    0.02395502901       101486.9874
    0.02420546142       101477.0186
    0.02445589384       101466.8597
    0.02470632625       101458.2992
    0.02495675866       101453.0254
    0.02520719108       101452.1618
    0.02545762349       101456.1352
     0.0257080559        101464.639
    0.02595848832       101476.7826
    0.02620892073       101491.3012
    0.02645935314       101506.7167
    0.02670978556       101521.5043
    0.02696021797       101534.2929
    0.02721065038       101544.0624
     0.0274610828       101550.1956
    0.02771151521       101552.4585
    0.02796194762       101550.8618
    0.02821238004       101545.6071
    0.02846281245       101536.9635
    0.02871324486       101525.2848
    0.02896367728       101511.0803
    0.02921410969       101495.0684
     0.0294645421       101478.2198
    0.02971497452       101461.7194
    0.02996540693       101446.9001
    0.03021583934       101435.1242
    0.03046627176       101427.6322
    0.03071670417        101425.453
    0.03096713658       101429.3325
      0.031217569       101439.5658
    0.03146800141       101455.9662
    0.03171843382       101477.7247
    0.03196886624       101503.3903
    0.03221929865       101530.9974
    0.03246973106       101558.3091
    0.03272016348       101583.0779
    0.03297059589       101603.2533
     0.0332210283       101617.1762
    0.03347146072       101623.8018
    0.03372189313        101622.916
    0.03397232554       101615.1608
    0.03422275796       101602.0193
    0.03447319037       101585.5595
    0.03472362278       101567.9687
     0.0349740552       101551.1296
    0.03522448761       101536.4257
    0.03547492002       101524.7097
    0.03572535244        101516.286
    0.03597578485       101510.8857
    0.03622621726       101507.8332
    0.03647664968       101506.1302
    0.03672708209        101504.842
     0.0369775145       101503.3983
    0.03722794692        101501.729
    0.03747837933       101500.2217
    0.03772881174       101499.5538
    0.03797924416       101500.4661
    0.03822967657       101503.5567
    0.03848010898       101509.1606
     0.0387305414       101517.2889
    0.03898097381       101527.6004
    0.03923140622       101539.4337
    0.03948183864       101551.9403
    0.03973227105       101564.2733
    0.03998270346       101575.6992
    0.04023313588       101585.6488
    0.04048356829       101593.6705
     0.0407340007       101599.3634
    0.04098443312       101602.3711
    0.04123486553       101602.3894
    0.04148529795       101599.2141
    0.04173573036       101592.8482
    0.04198616277       101583.6307
    0.04223659519       101572.2537
     0.0424870276       101559.7801
    0.04273746001       101547.5622
    0.04298789243        101537.064
    0.04323832484        101529.665
    0.04348875725       101526.4901
    0.04373918967        101528.244
    0.04398962208       101535.0914
    0.04424005449       101546.5745
    0.04449048691       101561.6451
    0.04474091932       101578.7806
    0.04499135173       101596.1771
    0.04524178415       101612.0159
    0.04549221656         101624.68
    0.04574264897        101632.958
    0.04599308139       101636.1934
     0.0462435138       101634.3668
    0.04649394621       101628.0145
    0.04674437863        101618.103
    0.04699481104       101605.8597
    0.04724524345       101592.5991
    0.04749567587       101579.4969
    0.04774610828       101567.6186
    0.04799654069       101557.8718
    0.04824697311       101550.8851
    0.04849740552       101546.9566
    0.04874783793       101546.1538
    0.04899827035       101548.3001
    0.04924870276       101553.0927
    0.04949913517       101560.2055
    0.04974956759       101569.2924
             0.05        101579.983
          0.05025       101591.9369
           0.0505       101604.9089
          0.05075       101618.5873
            0.051       101632.5063
          0.05125       101646.0228
           0.0515       101658.3391
          0.05175       101668.5458
            0.052       101675.7017
          0.05225       101678.9661
           0.0525       101677.7569
          0.05275       101671.8881
            0.053       101661.6326
          0.05325       101647.7101
           0.0535       101631.2524
          0.05375       101613.6725
            0.054       101596.5031
          0.05425       101581.2312
           0.0545       101569.1644
          0.05475       101561.3263
            0.055       101558.4278
          0.05525       101560.7634
           0.0555       101568.2184
          0.05575       101580.3279
            0.056        101596.298
          0.05625       101615.0228
           0.0565       101635.1515
          0.05675       101655.2167
            0.057       101673.8126
          0.05725       101689.7796
           0.0575       101702.3295
          0.05775       101711.0685
            0.058       101715.9342
          0.05825       101717.1096
           0.0585       101714.9553
          0.05875       101709.9906
            0.059       101702.8554
          0.05925       101694.2049
           0.0595       101684.7827
          0.05975       101675.3632
             0.06       101666.6886
          0.06025       101659.4085
           0.0605       101654.0091
          0.06075       101650.7511
            0.061       101649.6299
          0.06125       101650.3896
           0.0615       101652.5857
          0.06175       101655.7351
            0.062        101659.471
          0.06225       101663.6435
           0.0625       101668.3213
          0.06275       101673.7018
            0.063       101679.9577
          0.06325       101687.0841
           0.0635       101694.8144
          0.06375       101702.6412
            0.064       101709.9269
          0.06425       101716.0579
           0.0645       101720.5708
          0.06475       101723.2366
            0.065       101724.0913
          0.06525        101723.414
           0.0655       101721.6649
          0.06575        101719.394
            0.066       101717.1465
          0.06625       101715.3895
           0.0665       101714.4909
          0.06675       101714.7403
            0.067       101716.3891
          0.06725       101719.6635
           0.0675       101724.7409
          0.06775       101731.6985
            0.068       101740.4568
          0.06825       101750.7409
           0.0685       101762.0725
          0.06875       101773.7949
            0.069       101785.1294
          0.06925       101795.2616
    0.06949798387       101803.3884
         0.069742       101808.9654
      0.069984064       101811.8022
    0.07022419149       101811.8849
    0.07046239796       101809.4257
    0.07069869877       101804.8155
    0.07093310918       101798.5725
    0.07116751959       101791.2392
     0.0714000396       101783.5236
    0.07163068444       101776.0824
    0.07186132928       101769.4511
    0.07209009896       101764.1494
    0.07231886864        101760.447
    0.07254576316       101758.5477
    0.07277079789       101758.5094
    0.07299583262       101760.3605
    0.07321900755       101764.0846
    0.07344033807       101769.6335
    0.07366166859       101776.9978
    0.07388115468       101786.0181
    0.07409881173       101796.5249
    0.07431646877       101808.3836
    0.07453229676       101821.1757
    0.07474812476       101834.5766
     0.0749621237       101847.9485
    0.07517430909       101860.7108
    0.07538649448       101872.3759
    0.07559686633       101882.3029
    0.07580723817       101890.1407
    0.07601579646       101895.5444
    0.07622255683       101898.4524
    0.07642931721       101898.9854
    0.07663427967       101897.4039
    0.07683745985       101894.1222
    0.07704064002       101889.5626
     0.0772438202       101884.1633
    0.07744520232        101878.377
    0.07764658444       101872.4896
    0.07784616851       101866.8158
    0.07804575258       101861.5112
    0.07824353859       101856.7949
     0.0784413246        101852.781
    0.07863731256        101849.678
    0.07883330052       101847.6503
    0.07902749042       101846.9325
    0.07922168033       101847.7477
    0.07941407218       101850.3026
    0.07960646403       101854.7916
    0.07979705782       101861.2586
    0.07998765161        101869.738
    0.08017644735       101879.9965
    0.08036524309       101891.8409
    0.08055224078       101904.7436
    0.08073745753       101918.1865
    0.08092267429       101931.7392
    0.08110611011       101944.7079
    0.08128954593        101956.683
    0.08147120083       101967.0956
    0.08165285572       101975.6959
    0.08183272969       101982.1841
    0.08201260365       101986.5551
    0.08219069668       101988.8567
    0.08236702642       101989.3441
    0.08254335615       101988.3474
    0.08271792259       101986.2688
    0.08289248903        101983.514
    0.08306529217       101980.5168
    0.08323809531       101977.6009
    0.08340913516       101975.0676
      0.083580175       101973.0652
    0.08375121484       101971.6569
    0.08392047302        101970.815
     0.0840897312        101970.424
    0.08425898938       101970.3559
    0.08442644694       101970.4871
     0.0845939045       101970.7352
    0.08476136206       101971.0835
    0.08492699943       101971.5849
     0.0850926368        101972.369
    0.08525827417       101973.6124
    0.08542391154       101975.5113
    0.08558768781       101978.2125
    0.08575146409       101981.8653
    0.08591524036       101986.5332
    0.08607901664       101992.1982
    0.08624088853        101998.679
    0.08640276043       102005.8666
    0.08656463233       102013.5367
    0.08672650423       102021.4281
    0.08688642587       102029.1662
    0.08704634751       102036.5631
    0.08720626914       102043.3449
    0.08736421644       102049.1972
    0.08752216373       102054.0107
    0.08768011102       102057.6466
    0.08783605899       102060.0165
    0.08799200695       102061.1862
    0.08814795491       102061.2443
    0.08830187757       102060.3647
    0.08845580024       102058.7585
     0.0886097229        102056.664
    0.08876364556        102054.335
    0.08891548819       102052.0491
    0.08906733082       102049.9915
    0.08921917345       102048.3408
    0.08936890715       102047.2427
    0.08951864085       102046.7632
    0.08966837455       102046.9678
    0.08981810825       102047.9062
     0.0899656719       102049.5872
    0.09011323555       102052.0459
     0.0902607992       102055.2944
    0.09040836285       102059.3275
     0.0905559265        102064.123
    0.09070121994       102069.5548
    0.09084651337       102075.6443
    0.09099180681       102082.3309
    0.09113710025       102089.5364
    0.09128239369       102097.1635
    0.09142530527       102104.9674
    0.09156821685        102112.953
    0.09171112843       102121.0052
    0.09185404001       102129.0242
    0.09199695158       102136.9341
    0.09213986316        102144.683
    0.09228022275       102152.1017
    0.09242058234       102159.2971
    0.09256094192        102166.227
    0.09270130151       102172.8307
    0.09284166109       102179.0225
    0.09297932146        102184.586
    0.09311698182        102189.521
    0.09325464219       102193.6911
    0.09339230255       102196.9619
    0.09352996291       102199.2175
    0.09366762328       102200.3792
     0.0938023547       102200.4298
    0.09393708612       102199.4336
    0.09407181754       102197.4741
    0.09420654895       102194.6872
    0.09434128037       102191.2516
    0.09447601179       102187.3744
    0.09460753532       102183.3711
    0.09473905885       102179.3515
    0.09487058238       102175.4969
    0.09500210591       102171.9651
    0.09513362944       102168.8879
    0.09526515297       102166.3695
     0.0953966765       102164.4843
    0.09552820002        102163.276
    0.09565596574        102162.766
    0.09578373145       102162.9066
    0.09591149716       102163.6866
    0.09603926288       102165.0962
    0.09616702859       102167.1317
    0.09629479431       102169.7955
    0.09642256002       102173.0929
    0.09655032573       102177.0261
    0.09667809145       102181.5856
    0.09680585716       102186.7387
    0.09693362287       102192.4198
    0.09706138859       102198.5242
    0.09718383073       102204.6438
    0.09730627287       102210.8759
    0.09742871501       102217.0583
    0.09755115716       102223.0313
     0.0976735993       102228.6541
    0.09779604144       102233.8179
    0.09791848358       102238.4542
    0.09804092572       102242.5377
    0.09816336787       102246.0858
    0.09828581001       102249.1553
    0.09840825215       102251.8353
    0.09853069429       102254.2338
    0.09865313644       102256.4578
    0.09877557858       102258.5929
    0.09889802072       102260.6897
    0.09902046286       102262.7587
      0.099142905       102264.7706
    0.09926534715       102266.6642
    0.09938778929        102268.359
    0.09951023143       102269.7696
    0.09963267357       102270.8287
    0.09975511572       102271.5063
    0.09987755786       102271.8157
              0.1       102271.8248
     0.1001184834       102271.6663
     0.1002366861       102271.5134
     0.1003546086       102271.5678
     0.1004722517       102272.0344
     0.1005898948       102273.0887
     0.1007072585       102274.8469
     0.1008243434       102277.3512
     0.1009411502       102280.5569
     0.1010576795       102284.3302
      0.101173932       102288.4597
     0.1012899085       102292.6809
     0.1014056094       102296.7083
     0.1015210355       102300.2716
     0.1016359146       102303.1433
     0.1017505214       102305.1898
     0.1018648566        102306.366
      0.101978921       102306.7328
      0.102092715        102306.453
     0.1022062394        102305.775
     0.1023194947       102305.0056
     0.1024327501       102304.4746
     0.1025457364       102304.5013
     0.1026584544       102305.3526
     0.1027709046       102307.2164
     0.1028830877       102310.1842
     0.1029952709       102314.2571
     0.1031071869       102319.3251
     0.1032188364       102325.2078
     0.1033299556        102331.658
     0.1034408108       102338.4359
     0.1035514027       102345.2907
     0.1036617319       102351.9943
     0.1037717991       102358.3552
     0.1038813446       102364.2128
     0.1039906305       102369.4821
     0.1040996574       102374.1063
      0.104208426       102378.0649
     0.1043169368       102381.3662
     0.1044251905       102384.0382
     0.1045331877       102386.1211
      0.104640929       102387.6643
     0.1047484149       102388.7256
     0.1048556462       102389.3741
     0.1049626233       102389.6906
      0.105069347       102389.7681
     0.1051758177        102389.709
     0.1052822884       102389.6202
     0.1053885063       102389.6068
     0.1054944718       102389.7603
     0.1056001857       102390.1482
     0.1057056484       102390.8063
     0.1058111112        102391.737
     0.1059163228        102392.903
     0.1060212839       102394.2355
     0.1061259952       102395.6387
     0.1062307064       102397.0059
     0.1063351677       102398.2223
     0.1064393797       102399.1902
      0.106543343       102399.8399
     0.1066470582        102400.144
     0.1067505258       102400.1288
     0.1068539935       102399.8804
     0.1069572136        102399.546
     0.1070601868       102399.3234
     0.1071629136       102399.4436
     0.1072653947       102400.1439
     0.1073676305       102401.6388
     0.1074696219       102404.0897
     0.1075713692       102407.5797
     0.1076728731       102412.0974
     0.1077741342       102417.5335
      0.107875153       102423.6898
     0.1079759301        102430.298
     0.1080764662       102437.0449
     0.1081770022       102443.6181
     0.1082772972         102449.69
     0.1083773516       102455.0006
     0.1084774061       102459.3739
       0.10857722       102462.7084
      0.108676794        102465.026
     0.1087761286       102466.4499
     0.1088752245        102467.185
     0.1089740821        102467.492
     0.1090729397       102467.6573
     0.1091715591       102467.9582
     0.1092699409       102468.6301
     0.1093680857         102469.83
     0.1094659939       102471.6362
     0.1095636662       102474.0411
     0.1096613385       102476.9315
     0.1097587749       102480.0899
     0.1098559759       102483.2477
     0.1099529421       102486.1123
     0.1100499084       102488.4009
     0.1101466398       102489.8495
     0.1102431371       102490.2597
     0.1103396343       102489.5083
     0.1104358973       102487.5631
     0.1105319267       102484.4858
      0.110627723       102480.4219
     0.1107235193       102475.5726
     0.1108190825       102470.2109
     0.1109144132       102464.6274
     0.1110097439       102459.1041
     0.1111048421       102453.9365
     0.1111997083       102449.3757
     0.1112943432       102445.6304
     0.1113889781       102442.8537
     0.1114833815         102441.16
     0.1115775542       102440.5948
     0.1116717269       102441.1475
     0.1117656687       102442.7501
     0.1118593803       102445.2803
     0.1119530919       102448.5829
     0.1120465732       102452.4586
     0.1121398249       102456.7031
     0.1122330766       102461.1329
     0.1123263282       102465.5823
     0.1124193496       102469.9175
     0.1125123711       102474.0769
     0.1126051622       102478.0298
     0.1126979534       102481.8118
     0.1127905143       102485.4774
     0.1128830752       102489.1266
     0.1129754059        102492.856
     0.1130677365       102496.7847
     0.1131600672       102501.0179
      0.113252167       102505.6274
     0.1133442668       102510.6989
     0.1134361358       102516.2645
     0.1135280048       102522.3512
      0.113619643       102528.9217
      0.113711051        102535.916
     0.1138024589       102543.2577
     0.1138936366       102550.8066
     0.1139845846       102558.4229
     0.1140755326         102565.98
      0.114166251       102573.3139
     0.1142567402       102580.2866
     0.1143472295       102586.7864
     0.1144374897       102592.6858
     0.1145275213       102597.9049
     0.1146173251       102602.4024
     0.1147071288       102606.1876
     0.1147967046       102609.2881
     0.1148862805       102611.7785
     0.1149756283       102613.7376
     0.1150647489       102615.2596
     0.1151538694       102616.4389
     0.1152427626       102617.3534
     0.1153316558         102618.07
     0.1154203216       102618.6294
     0.1155089875       102619.0489
      0.115597426       102619.3141
     0.1156856377       102619.3824
     0.1157738494       102619.1856
     0.1158618344       102618.6374
     0.1159495932       102617.6431
     0.1160371264       102616.1111
     0.1161246595       102613.9591
     0.1162119671       102611.1385
     0.1162992747       102607.6269
     0.1163863567       102603.4528
     0.1164732136       102598.6722
     0.1165600706        102593.362
     0.1166467025       102587.6592
     0.1167333345       102581.7022
     0.1168197414       102575.6797
     0.1169061483       102569.7583
     0.1169923302       102564.1303
     0.1170782877       102558.9555
     0.1171642452       102554.3566
     0.1172499782        102550.452
     0.1173357113       102547.3072
     0.1174212199       102544.9771
     0.1175065046       102543.4808
     0.1175917894       102542.8172
     0.1176768503       102542.9767
     0.1177619112       102543.9376
     0.1178467483       102545.6641
     0.1179315854        102548.115
     0.1180161986       102551.2214
     0.1181008119       102554.9085
     0.1181852012        102559.062
     0.1182695906       102563.5684
       0.11835398       102568.2914
      0.118438145       102573.0788
     0.1185223099       102577.8127
     0.1186062504       102582.3715
     0.1186901909       102586.6896
      0.118773907       102590.7157
     0.1188576231       102594.4606
     0.1189413391       102597.9609
     0.1190248301       102601.2767
     0.1191083212       102604.5121
     0.1191915871       102607.7628
     0.1192748531       102611.1601
     0.1193578941       102614.8094
      0.119440935       102618.8175
     0.1195237509       102623.2422
     0.1196065668       102628.1286
     0.1196891576       102633.4579
     0.1197717485       102639.2013
     0.1198541143       102645.2674
     0.1199364801       102651.5702
     0.1200186209       102657.9699
     0.1201007616       102664.3477
     0.1201826774       102670.5432
     0.1202645931       102676.4288
     0.1203462838       102681.8493
     0.1204279744        102686.695
     0.1205094401       102690.8503
     0.1205909057       102694.2493
     0.1206723713       102696.8373
     0.1207536113       102698.5837
     0.1208348513        102699.502
     0.1209158656       102699.6323
     0.1209968799       102699.0512
     0.1210776685       102697.8634
     0.1211584572       102696.1869
     0.1212390201       102694.1578
     0.1213195831       102691.9079
     0.1213999204       102689.5723
     0.1214802577       102687.2585
     0.1215603693        102685.069
      0.121640481        102683.074
     0.1217203669       102681.3328
     0.1218002529       102679.8689
     0.1218799132       102678.6869
     0.1219595735       102677.7566
     0.1220392338       102677.0265
     0.1221186678       102676.4243
     0.1221981018       102675.8555
     0.1222775358       102675.2148
     0.1223567428       102674.3951
     0.1224359499       102673.2921
     0.1225151569        102671.823
     0.1225941364       102669.9416
     0.1226731158       102667.6311
     0.1227520952       102664.9209
     0.1228308464       102661.8925
     0.1229095976         102658.65
     0.1229883487       102655.3395
     0.1230670999       102652.1357
     0.1231456215       102649.2417
     0.1232241431       102646.8417
     0.1233026646       102645.1213
     0.1233811862       102644.2428
     0.1234597078        102644.328
     0.1235379977       102645.4406
     0.1236162877       102647.5885
     0.1236945776       102650.7223
     0.1237728676       102654.7384
     0.1238511575       102659.4862
     0.1239292138       102664.7633
       0.12400727       102670.3681
     0.1240853263       102676.0967
     0.1241631481       102681.7643
     0.1242409699       102687.2315
     0.1243187918       102692.3626
     0.1243963785       102697.0448
     0.1244739652       102701.2388
      0.124551552       102704.9285
     0.1246289029       102708.1166
     0.1247062538       102710.8404
     0.1247836047       102713.1288
     0.1248607191       102715.0031
     0.1249378334       102716.4937
     0.1250149478       102717.6215
     0.1250920621        102718.408
     0.1251689385       102718.8821
     0.1252458148       102719.0862
     0.1253226912       102719.0756
     0.1253993288       102718.9264
     0.1254759664        102718.738
      0.125552604       102718.6357
     0.1256290021        102718.769
     0.1257054002       102719.3066
     0.1257817983       102720.4273
     0.1258579562       102722.2983
     0.1259341141       102725.0728
     0.1260102719       102728.8613
     0.1260861888       102733.6998
     0.1261621057       102739.5832
     0.1262380225       102746.4225
     0.1263136976       102754.0304
     0.1263893727       102762.1987
     0.1264650478         102770.64
     0.1265404803       102778.9953
     0.1266159129       102786.9353
     0.1266913454       102794.1005
     0.1267665346       102800.1372
     0.1268417238       102804.7849
      0.126916913       102807.8312
     0.1269918581       102809.1547
     0.1270668032       102808.7078
     0.1271417483       102806.5155
     0.1272164485       102802.7354
     0.1272911486       102797.6007
     0.1273658488       102791.4144
     0.1274403032       102784.5378
     0.1275147577       102777.2971
     0.1275892121       102770.0281
       0.12766342       102763.0632
     0.1277376279        102756.644
     0.1278118359       102750.9792
     0.1278857964       102746.2185
     0.1279597569        102742.417
     0.1280337175       102739.6086
     0.1281074298       102737.7451
     0.1281811422       102736.6883
     0.1282548546       102736.2646
     0.1283285669       102736.2795
     0.1284020294       102736.5466
     0.1284754919       102736.8976
     0.1285489544       102737.1917
     0.1286224169       102737.3246
     0.1286956278        102737.238
     0.1287688387       102736.9232
     0.1288420496       102736.4184
     0.1289152605       102735.8014
      0.128988218       102735.1778
     0.1290611756       102734.6581
     0.1291341332       102734.3506
     0.1292070908       102734.3465
     0.1292800483       102734.7125
     0.1293527499       102735.4824
     0.1294254515       102736.6653
     0.1294981531       102738.2448
     0.1295708547       102740.1874
     0.1296435563       102742.4512
     0.1297159991       102744.9855
      0.129788442       102747.7641
     0.1298608849       102750.7631
     0.1299333277       102753.9669
     0.1300057706       102757.3633
     0.1300782134       102760.9379
     0.1301503938       102764.6556
     0.1302225742       102768.4995
     0.1302947546       102772.4309
      0.130366935       102776.4114
     0.1304391154       102780.4052
     0.1305112957        102784.379
     0.1305832098       102788.2851