# Probe 0 (2.4 2.295 1.5)
#           Probe                 0
#            Time
    1.1999904e-06            293.15
  2.639965056e-06            293.15
  4.367944597e-06            293.15
  6.441505713e-06            293.15
   8.92973777e-06            293.15
  1.191552707e-05            293.15
  1.549838863e-05            293.15
  1.979776087e-05            293.15
  2.495674128e-05            293.15
  3.114713435e-05            293.15
  3.857523794e-05            293.15
  4.748896225e-05            293.15
  5.818543142e-05            293.15
  7.102064463e-05            293.15
  8.642131685e-05            293.15
  0.0001049009832            293.15
  0.0001270765827            293.15
  0.0001536896689            293.15
  0.0001856219625            293.15
  0.0002239407148            293.15
  0.0002699019884            293.15
  0.0003250351347            293.15
  0.0003911802278            293.15
  0.0004705543394            293.15
  0.0005658032734            293.15
  0.0006799700095            293.15
  0.0008169700928            293.15
  0.0009814618316            293.15
   0.001179117227            293.15
   0.001416111804       293.1500002
   0.001666544217       293.1500009
   0.001916976631       293.1500039
   0.002167409044       293.1500131
   0.002417841458        293.150038
   0.002668273871       293.1500976
   0.002918706284       293.1502269
   0.003169138698       293.1504844
   0.003419571111       293.1509598
   0.003670003524       293.1517799
   0.003920435938       293.1531086
   0.004170868351       293.1551391
   0.004421300765       293.1580737
   0.004671733178       293.1620895
   0.004922165591        293.167293
   0.005172598005       293.1736631
   0.005423030418       293.1809954
   0.005673462831       293.1888601
   0.005923895245       293.1965927
   0.006174327658       293.2033348
   0.006424760072       293.2081403
   0.006675192485       293.2101422
   0.006925624898       293.2087551
   0.007176057312       293.2038611
   0.007426489725       293.1959692
   0.007676922139       293.1861241
   0.007927354552       293.1758131
   0.008177786965       293.1667033
   0.008428219379       293.1603285
   0.008678651792       293.1578214
   0.008929084205       293.1597336
   0.009179516619       293.1660835
   0.009429949032       293.1763458
   0.009680381446       293.1894858
   0.009930813859       293.2041003
    0.01018124627       293.2185763
    0.01043167869       293.2312064
     0.0106821111       293.2403064
    0.01093254351       293.2444169
    0.01118297593       293.2425992
    0.01143340834       293.2347458
    0.01168384075       293.2217307
    0.01193427317       293.2052836
    0.01218470558       293.1877393
    0.01243513799        293.171689
    0.01268557041       293.1596146
    0.01293600282        293.153484
    0.01318643523       293.1544515
    0.01343686765       293.1625741
    0.01368730006        293.176756
    0.01393773247       293.1949383
    0.01418816489        293.214613
     0.0144385973       293.2333253
    0.01468902971       293.2491361
    0.01493946213        293.260916
    0.01518989454       293.2684495
    0.01544032695       293.2723279
    0.01569075937       293.2736055
    0.01594119178       293.2734589
    0.01619162419       293.2728028
    0.01644205661       293.2720707
    0.01669248902       293.2712112
    0.01694292143       293.2698146
    0.01719335385       293.2672953
    0.01744378626       293.2631279
    0.01769421867       293.2570273
    0.01794465109       293.2491407
     0.0181950835       293.2401215
    0.01844551591       293.2310543
    0.01869594833       293.2232459
    0.01894638074       293.2179459
    0.01919681315       293.2160757
    0.01944724557       293.2180286
    0.01969767798       293.2235518
    0.01994811039       293.2318042
    0.02019854281       293.2415075
    0.02044897522       293.2512412
    0.02069940763        293.259862
    0.02094984005       293.2666911
    0.02120027246       293.2715986
    0.02145070487       293.2749502
    0.02170113729       293.2774314
     0.0219515697       293.2797859
    0.02220200211       293.2825682
    0.02245243453       293.2857923
    0.02270286694       293.2889462
    0.02295329935       293.2911964
    0.02320373177       293.2916501
    0.02345416418       293.2896572
    0.02370459659       293.2850364
    0.02395502901       293.2781638
    0.02420546142       293.2699315
    0.02445589384       293.2616211
    0.02470632625       293.2547231
    0.02495675866       293.2505972
    0.02520719108       293.2501393
    0.02545762349       293.2536637
     0.0257080559       293.2608849
    0.02595848832       293.2710427
    0.02620892073         293.28306
    0.02645935314       293.2956945
    0.02670978556       293.3076798
    0.02696021797       293.3179082
    0.02721065038       293.3255929
     0.0274610828       293.3302908
    0.02771151521       293.3318646
    0.02796194762       293.3303633
    0.02821238004       293.3259651
    0.02846281245       293.3188808
    0.02871324486       293.3093548
    0.02896367728       293.2977371
    0.02921410969       293.2845632
     0.0294645421       293.2706069
    0.02971497452       293.2568514
    0.02996540693       293.2444313
    0.03021583934       293.2345117
    0.03046627176       293.2281453
    0.03071670417       293.2261971
    0.03096713658        293.229286
      0.031217569       293.2376497
    0.03146800141       293.2511011
    0.03171843382       293.2689399
    0.03196886624       293.2899437
    0.03221929865       293.3125015
    0.03246973106       293.3347911
    0.03272016348       293.3550095
    0.03297059589       293.3715214
     0.0332210283       293.3829886
    0.03347146072       293.3885439
    0.03372189313       293.3879532
    0.03397232554       293.3816918
    0.03422275796       293.3709351
    0.03447319037       293.3573584
    0.03472362278       293.3427462
     0.0349740552       293.3286484
    0.03522448761       293.3162444
    0.03547492002       293.3062981
    0.03572535244       293.2990932
    0.03597578485       293.2944147
    0.03622621726       293.2916595
    0.03647664968       293.2900117
    0.03672708209       293.2887528
     0.0369775145       293.2874577
    0.03722794692       293.2860645
    0.03747837933        293.284849
    0.03772881174       293.2843189
    0.03797924416       293.2850599
    0.03822967657       293.2875602
    0.03848010898       293.2921047
     0.0387305414       293.2987145
    0.03898097381       293.3071168
    0.03923140622       293.3167717
    0.03948183864       293.3269809
    0.03973227105       293.3370351
    0.03998270346       293.3463034
    0.04023313588        293.354291
    0.04048356829       293.3606065
     0.0407340007       293.3649136
    0.04098443312       293.3669385
    0.04123486553       293.3664877
    0.04148529795       293.3634812
    0.04173573036       293.3580095
    0.04198616277       293.3503792
    0.04223659519       293.3411589
     0.0424870276       293.3312053
    0.04273746001       293.3215847
    0.04298789243       293.3134187
    0.04323832484       293.3077349
    0.04348875725       293.3053543
    0.04373918967       293.3067766
    0.04398962208       293.3120956
    0.04424005449       293.3209537
    0.04449048691       293.3325645
    0.04474091932       293.3458037
    0.04499135173       293.3593246
    0.04524178415       293.3717619
    0.04549221656       293.3818449
    0.04574264897       293.3885857
    0.04599308139       293.3914096
     0.0462435138       293.3902265
    0.04649394621       293.3853737
    0.04674437863       293.3775553
    0.04699481104       293.3677186
    0.04724524345        293.356886
    0.04749567587       293.3460343
    0.04774610828       293.3360521
    0.04799654069       293.3276859
    0.04824697311       293.3214739
    0.04849740552       293.3177301
    0.04874783793       293.3165604
    0.04899827035        293.317931
    0.04924870276       293.3215933
    0.04949913517       293.3272548
    0.04974956759       293.3346464
             0.05       293.3434551
          0.05025       293.3533428
           0.0505       293.3640314
          0.05075       293.3751937
            0.051       293.3864079
          0.05125       293.3971151
           0.0515       293.4066459
          0.05175       293.4143003
            0.052       293.4194304
          0.05225       293.4215057
           0.0525       293.4201668
          0.05275       293.4152861
            0.053       293.4070065
          0.05325       293.3957879
           0.0535       293.3824324
          0.05375       293.3680138
            0.054       293.3537627
          0.05425       293.3409314
           0.0545       293.3306598
          0.05475       293.3238745
            0.055       293.3212188
          0.05525       293.3230167
           0.0555       293.3292087
          0.05575       293.3393884
            0.056       293.3528733
          0.05625       293.3687418
           0.0565       293.3858579
          0.05675       293.4029364
            0.057       293.4186862
          0.05725       293.4319947
           0.0575       293.4420737
          0.05775       293.4485281
            0.058       293.4513505
          0.05825       293.4508658
           0.0585       293.4476403
          0.05875       293.4423804
            0.059       293.4358388
          0.05925        293.428697
           0.0595       293.4214832
          0.05975       293.4145832
             0.06       293.4082585
          0.06025       293.4026946
           0.0605       293.3980522
          0.06075       293.3944913
            0.061       293.3921653
          0.06125       293.3911898
           0.0615       293.3915944
          0.06175       293.3933039
            0.062       293.3961445
          0.06225       293.3998826
           0.0625       293.4042692
          0.06275       293.4090877
            0.063        293.414187
          0.06325       293.4194843
           0.0635       293.4249345
          0.06375       293.4304803
            0.064       293.4360102
          0.06425       293.4413316
           0.0645       293.4461626
          0.06475       293.4501521
            0.065       293.4529277
          0.06525        293.454183
           0.0655       293.4537819
          0.06575       293.4518482
            0.066       293.4487893
          0.06625       293.4452648
           0.0665        293.442084
          0.06675       293.4400633
            0.067       293.4398822
          0.06725       293.4419707
           0.0675       293.4464447
          0.06775       293.4531044
            0.068       293.4614837
          0.06825       293.4709254
           0.0685       293.4806815
          0.06875        293.490013
            0.069       293.4982589
          0.06925       293.5048777
           0.0695       293.5094773
          0.06975       293.5118445
             0.07       293.5119663
          0.07025       293.5100221
           0.0705        293.506358
          0.07075       293.5014536
            0.071         293.49588
          0.07125       293.4902455
           0.0715       293.4851262
          0.07175       293.4810036
            0.072       293.4781815
          0.07225        293.476784
           0.0725       293.4767814
          0.07275       293.4780408
            0.073       293.4803957
          0.07325        293.483709
           0.0735       293.4879047
          0.07375       293.4929766
            0.074       293.4989697
          0.07425        293.505935
           0.0745        293.513877
          0.07475       293.5227026
            0.075       293.5321765
    0.07524752475       293.5418095
     0.0754950495       293.5511802
    0.07574009901       293.5596428
    0.07598269802        293.566708
    0.07622529703       293.5720494
    0.07646544554       293.5753694
    0.07670559406       293.5766146
    0.07694329208        293.575839
     0.0771809901       293.5732296
    0.07741623762        293.569128
    0.07765148515       293.5638988
    0.07788428218       293.5580718
    0.07811707921       293.5521194
    0.07834742574       293.5466621
    0.07857777228       293.5421962
    0.07880566832       293.5392698
    0.07903356436       293.5382576
     0.0792614604       293.5394504
     0.0794868793       293.5429141
    0.07971229821       293.5485717
    0.07993523999       293.5560715
    0.08015818177        293.565066
    0.08037864642        293.574945
    0.08059911106       293.5853014
    0.08081709858       293.5955395
     0.0810350861       293.6053664
    0.08125059648       293.6143732
    0.08146365788       293.6223911
    0.08167671929       293.6294204
    0.08188733171       293.6353576
     0.0820955233       293.6402343
    0.08230371489       293.6441301
    0.08250948565       293.6470207
     0.0827152564       293.6489556
    0.08291860633       293.6499331
    0.08312195625       293.6500016
    0.08332288534       293.6492265
    0.08352381444       293.6476979
    0.08372474353         293.64554
    0.08392322227       293.6429497
      0.084121701       293.6400912
    0.08432017974       293.6371756
    0.08451617749       293.6344539
    0.08471217525       293.6320947
      0.084908173       293.6302948
    0.08510165796        293.629248
    0.08529514292       293.6290859
    0.08548862789       293.6299471
    0.08568211285       293.6319434
    0.08587301801       293.6350844
    0.08606392317       293.6393896
    0.08625482833       293.6447929
     0.0864457335       293.6511432
     0.0866339872       293.6581074
     0.0868222409       293.6654702
     0.0870104946       293.6728694
     0.0871987483       293.6799063
    0.08738427369        293.686109
    0.08756979908       293.6912536
    0.08775532446       293.6950984
    0.08793808081       293.6975043
    0.08812083716         293.69856
    0.08830359352       293.6984227
    0.08848634987       293.6973715
    0.08866625065       293.6957778
    0.08884615143       293.6939854
    0.08902605222       293.6923284
      0.089205953        293.691084
    0.08938290459       293.6904645
    0.08955985618       293.6905557
    0.08973680777       293.6913883
    0.08991375936       293.6929339
    0.09008766006       293.6950968
    0.09026156076       293.6978512
    0.09043546146       293.7011836
    0.09060936216       293.7051149
    0.09078010103        293.709611
     0.0909508399       293.7148102
    0.09112157877       293.7207772
    0.09129231764       293.7275365
    0.09146305651       293.7350343
    0.09163044756       293.7429635
    0.09179783861       293.7512495
    0.09196522966       293.7596041
    0.09213262071       293.7676991
    0.09230001176       293.7752099
    0.09246740281       293.7818563
    0.09263115492       293.7873296
    0.09279490703       293.7916833
    0.09295865914       293.7949114
    0.09312241126       293.7970925
    0.09328616337       293.7983661
    0.09344601662       293.7988974
    0.09360586988       293.7988816
    0.09376572313       293.7984473
    0.09392557638       293.7976818
    0.09408542964       293.7966304
    0.09424528289       293.7953154
    0.09440513614       293.7937514
    0.09456054903       293.7920229
    0.09471596191       293.7901489
     0.0948713748       293.7882253
    0.09502678768       293.7863814
    0.09518220057       293.7847673
    0.09533761345       293.7835364
    0.09549302634       293.7828204
    0.09564325879       293.7827025
    0.09579349125       293.7831793
     0.0959437237       293.7842226
    0.09609395616       293.7857519
    0.09624418861       293.7876473
    0.09639442107       293.7897703
    0.09654465352       293.7919882
    0.09669488598        293.794198
    0.09684511844       293.7963449
    0.09699535089       293.7984334
    0.09714558335       293.8005272
     0.0972958158       293.8027384
    0.09744604826       293.8052089
    0.09758793447       293.8079065
    0.09772982067       293.8110743
    0.09787170688         293.81479
    0.09801359309       293.8190832
     0.0981554793       293.8239268
     0.0982973655       293.8292377
    0.09843925171       293.8348751
    0.09858113792       293.8406538
    0.09872302413       293.8463595
    0.09886491034       293.8517767
    0.09900679654       293.8567078
    0.09914868275       293.8609952
    0.09929056896       293.8645377
    0.09943245517       293.8673023
    0.09957434138       293.8693249
    0.09971622758       293.8707064
    0.09985811379       293.8715979
              0.1       293.8721794
     0.1001388889       293.8726261
      0.100277392       293.8731101
     0.1004155103       293.8737555
      0.100553245       293.8746406
     0.1006905971       293.8757867
     0.1008275677       293.8771635
     0.1009641578       293.8787018
     0.1011003684       293.8803124
     0.1012362008       293.8819092
     0.1013716558       293.8834266
     0.1015067345       293.8848314
      0.101641438       293.8861263
     0.1017761415       293.8873476
     0.1019104698       293.8885404
     0.1020444239       293.8897542
     0.1021780049       293.8910257
     0.1023112138       293.8923668
     0.1024440517       293.8937573
     0.1025765195       293.8951446
     0.1027086183        293.896453
     0.1028403492       293.8976014
     0.1029717131       293.8985247
     0.1031027111       293.8991954
     0.1032333443        293.899641
     0.1033632516       293.8999512
     0.1034927982       293.9002761
     0.1036219848        293.900806
     0.1037508127       293.9017464
     0.1038792826       293.9032875
     0.1040073957       293.9055748
      0.104135153        293.908686
     0.1042625553       293.9126191
     0.1043896038       293.9172902
     0.1045162993       293.9225434
     0.1046426429        293.928168
     0.1047686356       293.9339225
     0.1048942783       293.9395593
     0.1050195719       293.9448485
     0.1051445176       293.9495957
     0.1052691161       293.9536539
     0.1053933686       293.9569274
     0.1055172759       293.9593723
      0.105640839        293.960993
     0.1057640589       293.9618369
     0.1058869365       293.9619832
     0.1060094728       293.9615345
     0.1061320091       293.9606086
     0.1062542041       293.9593437
     0.1063760586       293.9578913
     0.1064975738       293.9564129
     0.1066187505       293.9550764
     0.1067395896       293.9540489
     0.1068600921       293.9534877
      0.106980259       293.9535279
     0.1071000912       293.9542695
     0.1072199233       293.9557684
     0.1073394207       293.9580173
     0.1074589182       293.9609638
     0.1075780808       293.9644908
     0.1076969098       293.9684522
     0.1078154058       293.9726823
     0.1079339019       293.9770215
     0.1080520651       293.9813007
     0.1081698963       293.9853828
     0.1082873966       293.9891661
     0.1084045669       293.9925961
      0.108521408       293.9956653
     0.1086379209       293.9984051
     0.1087541065       294.0008695
     0.1088699657       294.0031212
     0.1089854995       294.0052183
     0.1091007088       294.0072025
     0.1092159181       294.0090977
     0.1093308028       294.0108929
     0.1094453639       294.0125617
     0.1095596023       294.0140633
      0.109673519       294.0153497
     0.1097871147       294.0163749
     0.1099003904       294.0171028
     0.1100136661       294.0175178
     0.1101266219        294.017628
     0.1102392585       294.0174756
     0.1103518952       294.0171306
     0.1104642128       294.0166849
     0.1105762122       294.0162345
     0.1106882116        294.015862
     0.1107998928       294.0156227
     0.1109112567       294.0155299
     0.1110226207       294.0155509
     0.1111336673       294.0156106
     0.1112443976       294.0156029
     0.1113551279       294.0154061
     0.1114655419       294.0149049
     0.1115756403        294.014009
     0.1116854242       294.0126696
     0.1117952081       294.0108856
     0.1119046774       294.0087227
     0.1120141467       294.0062934
     0.1121233015       294.0037728
     0.1122324562       294.0013585
     0.1123412964       293.9992794
     0.1124498229       293.9977511
     0.1125583494       293.9969594
     0.1126665623       293.9970486
     0.1127747752       293.9980981
     0.1128826744       294.0001138
     0.1129902608       294.0030164
     0.1130975354       294.0066952
       0.11320481       294.0110088
     0.1133117728       294.0157723
     0.1134187356       294.0208266
     0.1135253865       294.0260032
     0.1136320374       294.0311955
     0.1137383765       294.0363073
     0.1138447155        294.041314
     0.1139510546       294.0462135
     0.1140570809       294.0510207
     0.1141631072       294.0558014
     0.1142688208       294.0606041
     0.1143745343       294.0655056
     0.1144799351       294.0705424
     0.1145850241       294.0757436
     0.1146898021       294.0811111
     0.1147942701       294.0866158
     0.1148987382       294.0922148
     0.1150028962        294.097806
     0.1151067452       294.1032847
      0.115210286       294.1085377
     0.1153138268       294.1134675
     0.1154170595       294.1179575
     0.1155199849       294.1219257
      0.115622604       294.1253142
     0.1157252231       294.1280977
     0.1158275359       294.1302565
     0.1159295432       294.1318017
     0.1160315506       294.1327599
     0.1161332525       294.1331579
       0.11623465       294.1330317
     0.1163360474       294.1324161
     0.1164371404       294.1313483
     0.1165379297       294.1298675
     0.1166384164       294.1280149
     0.1167389031       294.1258244
     0.1168390871       294.1233415
     0.1169389694       294.1206078
     0.1170388517         294.11766
     0.1171384322       294.1145563
     0.1172380127       294.1113403
     0.1173372914       294.1080759
     0.1174365702       294.1048074
     0.1175355472       294.1015981
     0.1176345242       294.0984898
     0.1177331994       294.0955406
     0.1178318746       294.0927859
     0.1179302481       294.0902718
     0.1180286216       294.0880196
     0.1181266933       294.0860551
     0.1182244642       294.0843867
     0.1183222351       294.0830116
     0.1184197051       294.0819315
     0.1185171751       294.0811379
     0.1186143444       294.0806289
     0.1187115136       294.0804025
     0.1188083819       294.0804681
     0.1189052503       294.0808476
     0.1190018179       294.0815777
     0.1190983854        294.082714
     0.1191946521       294.0843169
     0.1192906189       294.0864507
     0.1193865858       294.0891808
     0.1194825526       294.0925511
     0.1195782186       294.0965648
     0.1196738845       294.1012147
     0.1197692497       294.1064002
     0.1198646148       294.1120709
     0.1199596791       294.1181074
     0.1200547434       294.1244077
     0.1201495069       294.1308217
     0.1202442704       294.1372346
      0.120338733       294.1434918
     0.1204331956       294.1494835
     0.1205273574       294.1550731
     0.1206215192       294.1601796
     0.1207153802       294.1647129
     0.1208092412       294.1686433
     0.1209028013       294.1719443
     0.1209963614       294.1746407
     0.1210896207       294.1767619
       0.12118288       294.1783731
     0.1212758384        294.179543
     0.1213687969       294.1803597
     0.1214614545       294.1809073
     0.1215541121       294.1812705
     0.1216464689        294.181519
     0.1217388257       294.1817073
     0.1218308816       294.1818649
     0.1219226377       294.1819947
     0.1220143938         294.18207
       0.12210585       294.1820344
     0.1221973063        294.181808
     0.1222887625       294.1812933
     0.1223799179       294.1803907
     0.1224710733       294.1790007
     0.1225619278       294.1770475
     0.1226527823       294.1744693
     0.1227436369       294.1712441
     0.1228341896       294.1674087
     0.1229247423       294.1630237
      0.123015295       294.1582039
     0.1231055448       294.1531214
     0.1231957947       294.1479489
     0.1232860445       294.1429006
     0.1233762944       294.1382036
     0.1234662393       294.1340928
     0.1235561843       294.1307484
     0.1236461292       294.1283272
     0.1237357683       294.1269366
     0.1238254073       294.1266128
     0.1239150463       294.1273477
     0.1240046853        294.129077
     0.1240943243        294.131686
     0.1241836542       294.1350114
     0.1242729842       294.1388936
     0.1243623141       294.1431645
      0.124451644       294.1476661
     0.1245409739       294.1522581
     0.1246299915       294.1568067
     0.1247190091       294.1612363
     0.1248080266       294.1654837
     0.1248970442       294.1695138
     0.1249857472       294.1733003
     0.1250744502       294.1768567
     0.1251631533       294.1801833
     0.1252515406       294.1832654
      0.125339928       294.1861089
     0.1254283153       294.1887122
     0.1255163859       294.1910772
     0.1256044564       294.1932406
     0.1256922102       294.1952422
      0.125779964       294.1971528
     0.1258674009       294.1990358
     0.1259548379       294.2009666
     0.1260422748       294.2030041
     0.1261293938       294.2051848
     0.1262165128       294.2075442
     0.1263036318       294.2100952
     0.1263907508       294.2128123
     0.1264775495       294.2156782
     0.1265643482       294.2186697
     0.1266511469       294.2217344
     0.1267376242        294.224795
     0.1268241014       294.2277895
     0.1269105786       294.2306411
     0.1269967332       294.2332694
     0.1270828878       294.2356244
     0.1271687196       294.2376508
     0.1272545515       294.2393258
     0.1273400607        294.240633
     0.1274255699       294.2415881
     0.1275110791       294.2422184
     0.1275962644       294.2425629
     0.1276814497       294.2426705
     0.1277663112       294.2425883
     0.1278511726       294.2423616
      0.127936034       294.2420311
     0.1280205702       294.2416353
     0.1281051065        294.241204
     0.1281896428       294.2407611
     0.1282738527       294.2403223
     0.1283580625       294.2398883
      0.128441946       294.2394504
     0.1285258295       294.2389835
      0.128609713        294.238454
     0.1286932688       294.2378236
     0.1287768246       294.2370473
     0.1288603804       294.2360852
     0.1289439362        294.234907
     0.1290271617       294.2335038
     0.1291103873        294.231876
     0.1291936128       294.2300505
     0.1292765068       294.2280846
     0.1293594008       294.2260409
     0.1294422948       294.2240055
     0.1295251887       294.2220752
     0.1296077485       294.2203579
     0.1296903082       294.2189431
     0.1297728679        294.217918
     0.1298554276       294.2173533
     0.1299376504       294.2172966
     0.1300198731       294.2177651
     0.1301020959       294.2187491
     0.1301843186        294.220208
     0.1302662016        294.222064
     0.1303480846       294.2242297
     0.1304299675       294.2265952
     0.1305118505       294.2290434
     0.1305937335       294.2314593
     0.1306752724       294.2337311
     0.1307568114       294.2357882
     0.1308383503       294.2375785
     0.1309198892       294.2390832
     0.1310010812       294.2403152
     0.1310822732       294.2413331
     0.1311634651       294.2422187
     0.1312446571       294.2430768
     0.1313254991       294.2440202
     0.1314063411       294.2451711
     0.1314871831       294.2466393
     0.1315680251       294.2485174
      0.131648514       294.2508642
      0.131729003       294.2537282
      0.131809492       294.2571175
      0.131889981       294.2610022
     0.1319701138       294.2652939
     0.1320502466       294.2699038
     0.1321303794       294.2746987
     0.1322105123       294.2795272
     0.1322902858       294.2842098
     0.1323700592       294.2886118
     0.1324498327       294.2925851
     0.1325296062       294.2959986
     0.1326093797        294.298746
     0.1326887889       294.3007429
     0.1327681982       294.3019822
     0.1328476074       294.3024789
     0.1329270166       294.3022895
     0.1330064258       294.3015104
     0.1330854657       294.3002768
     0.1331645056        294.298736
     0.1332435455       294.2970456
     0.1333225854       294.2953578
     0.1334016252       294.2938056
     0.1334802905       294.2924968
     0.1335589558       294.2914852
     0.1336376211       294.2907887
     0.1337162864       294.2903824
     0.1337945735       294.2902007
     0.1338728605       294.2901438
     0.1339511476       294.2900921
     0.1340294347       294.2899151
     0.1341077218       294.2894858
     0.1341856251       294.2887001
     0.1342635284        294.287476
     0.1343414318       294.2857667
     0.1344193351       294.2835657
     0.1344972384       294.2809106
     0.1345751417       294.2778814
     0.1346530451       294.2745924
     0.1347305549       294.2711972
     0.1348080648       294.2678237
     0.1348855747       294.2646108
     0.1349630846       294.2616802
     0.1350405944       294.2591288
     0.1351181043       294.2570241
     0.1351956142       294.2554045
     0.1352731241       294.2542816
     0.1353502281       294.2536459
     0.1354273322       294.2534592
     0.1355044362       294.2536754
     0.1355815403       294.2542382
     0.1356586444       294.2550852
     0.1357357484       294.2561584
     0.1358128525       294.2573923
     0.1358899566       294.2587333
     0.1359666416       294.2601393
     0.1360433266       294.2616021
     0.1361200116       294.2631243
     0.1361966966       294.2647229
     0.1362733816       294.2664269
     0.1363500667       294.2682745