# Probe 0 (0.4 0.005 1.4)
# Probe 1 (0.9 0.005 1.4)
# Probe 2 (1.4 0.005 1.4)
# Probe 3 (1.9 0.005 1.4)
# Probe 4 (2.4 0.005 1.4)
# Probe 5 (2.9 0.005 1.4)
# Probe 6 (3.4 0.005 1.4)
# Probe 7 (3.9 0.005 1.4)
# Probe 8 (4.4 0.005 1.4)
# Probe 9 (4.9 0.005 1.4)
# Probe 10 (5.4 0.005 1.4)
# Probe 11 (5.9 0.005 1.4)
# Probe 12 (6.4 0.005 1.4)
# Probe 13 (6.9 0.005 1.4)
# Probe 14 (7.4 0.005 1.4)
# Probe 15 (7.9 0.005 1.4)
# Probe 16 (8.4 0.005 1.4)
#           Probe                 0                 1                 2                 3                 4                 5                 6                 7                 8                 9                10                11                12                13                14                15                16
#            Time
    1.1999904e-06            293.15            293.15            293.15            293.15       293.1541597            293.15            293.15            293.15            293.15            293.15            293.15            293.15            293.15            293.15            293.15            293.15            293.15
  2.639965056e-06            293.15            293.15            293.15       293.1500001        293.159151            293.15            293.15            293.15       293.1499999            293.15            293.15            293.15            293.15            293.15            293.15            293.15            293.15
  4.367944597e-06            293.15            293.15            293.15       293.1500002       293.1651399            293.15            293.15            293.15       293.1499999            293.15            293.15            293.15            293.15            293.15            293.15            293.15            293.15
  6.441505713e-06            293.15            293.15            293.15       293.1500005       293.1723256       293.1500001            293.15            293.15       293.1499998       293.1499999            293.15            293.15            293.15            293.15            293.15            293.15            293.15
   8.92973777e-06            293.15            293.15            293.15        293.150001       293.1809474       293.1500003            293.15            293.15       293.1499998       293.1499999            293.15            293.15            293.15            293.15            293.15            293.15            293.15
  1.191552707e-05            293.15            293.15            293.15        293.150002       293.1912909       293.1500006            293.15            293.15       293.1499997       293.1499999            293.15            293.15            293.15            293.15            293.15            293.15            293.15
  1.549838863e-05            293.15            293.15            293.15       293.1500038       293.2036997       293.1500013            293.15            293.15       293.1499996       293.1499998            293.15            293.15            293.15            293.15            293.15            293.15            293.15
  1.979776087e-05            293.15            293.15            293.15        293.150007        293.218583       293.1500026            293.15            293.15       293.1499995       293.1499998            293.15            293.15            293.15            293.15            293.15            293.15            293.15
  2.495674128e-05            293.15            293.15            293.15       293.1500127       293.2364316       293.1500052            293.15            293.15       293.1499994       293.1499997            293.15            293.15            293.15            293.15            293.15            293.15            293.15
  3.114713435e-05            293.15            293.15            293.15        293.150023       293.2578303       293.1500101            293.15            293.15       293.1499992       293.1499997            293.15            293.15            293.15            293.15            293.15            293.15            293.15
  3.857523794e-05            293.15            293.15            293.15       293.1500409       293.2834751       293.1500191            293.15            293.15        293.149999       293.1499996            293.15            293.15            293.15            293.15            293.15            293.15            293.15
  4.748896225e-05            293.15            293.15            293.15       293.1500725       293.3141908       293.1500356            293.15            293.15       293.1499988       293.1499995            293.15            293.15            293.15            293.15            293.15            293.15            293.15
  5.818543142e-05            293.15            293.15            293.15       293.1501277       293.3509467       293.1500654            293.15            293.15       293.1499986       293.1499994            293.15            293.15            293.15            293.15            293.15            293.15            293.15
  7.102064463e-05            293.15            293.15            293.15        293.150224       293.3948702       293.1501188            293.15            293.15       293.1499982       293.1499992            293.15            293.15            293.15            293.15            293.15            293.15            293.15
  8.642131685e-05            293.15            293.15       293.1500001       293.1503915       293.4472532       293.1502139            293.15            293.15       293.1499979        293.149999            293.15            293.15            293.15            293.15            293.15            293.15            293.15
  0.0001049009832            293.15            293.15       293.1500002       293.1506822         293.50955        293.150382       293.1500001            293.15       293.1499974       293.1499988            293.15            293.15            293.15            293.15            293.15            293.15            293.15
  0.0001270765827            293.15            293.15       293.1500004       293.1511856       293.5833322       293.1506775       293.1500002            293.15       293.1499969       293.1499986            293.15            293.15            293.15            293.15            293.15            293.15            293.15
  0.0001536896689            293.15            293.15       293.1500011       293.1520548       293.6701898       293.1511944       293.1500004            293.15       293.1499962       293.1499983            293.15            293.15            293.15            293.15            293.15            293.15            293.15
  0.0001856219625            293.15            293.15       293.1500029       293.1535492       293.7714957        293.152093       293.1500011            293.15       293.1499954       293.1499979            293.15            293.15            293.15            293.15            293.15            293.15            293.15
  0.0002239407148            293.15            293.15       293.1500074       293.1561051       293.8880757       293.1536454       293.1500028            293.15       293.1499945       293.1499974            293.15            293.15            293.15            293.15            293.15            293.15            293.15
  0.0002699019884            293.15            293.15       293.1500187       293.1604406       294.0194473       293.1563053        293.150007            293.15       293.1499934       293.1499969            293.15            293.15            293.15            293.15            293.15            293.15            293.15
  0.0003250351347            293.15       293.1500001       293.1500466       293.1677132       294.1628599       293.1608159       293.1500176            293.15        293.149992       293.1499962            293.15            293.15            293.15            293.15            293.15            293.15            293.15
  0.0003911802278            293.15       293.1500002       293.1501153       293.1797149       294.3115707       293.1683602        293.150044            293.15       293.1499904       293.1499953            293.15            293.15            293.15            293.15            293.15            293.15            293.15
  0.0004705543394            293.15       293.1500007       293.1502817       293.1990495       294.4525135       293.1807369       293.1501086            293.15       293.1499885       293.1499943            293.15            293.15            293.15            293.15            293.15            293.15            293.15
  0.0005658032734            293.15       293.1500023       293.1506775        293.229089       294.5635794       293.2004792       293.1502654            293.15       293.1499862       293.1499928            293.15            293.15            293.15            293.15            293.15            293.15            293.15
  0.0006799700095            293.15       293.1500081       293.1515944       293.2732257       294.6119504        293.230667       293.1506381       293.1500004       293.1499835        293.149991       293.1499999            293.15            293.15            293.15            293.15            293.15            293.15
  0.0008169700928            293.15       293.1500274       293.1536446       293.3329297        294.556875       293.2741366       293.1515019       293.1500021       293.1499804       293.1499885       293.1499998            293.15            293.15            293.15            293.15            293.15            293.15
  0.0009814618316       293.1500003       293.1500902       293.1580088       293.4035157        294.361702       293.3311579       293.1534297       293.1500101       293.1499768       293.1499852       293.1499996            293.15            293.15            293.15            293.15            293.15            293.15
   0.001179117227       293.1500013       293.1502853       293.1666656       293.4686885       294.0222667       293.3953678       293.1575009       293.1500441        293.149973       293.1499808       293.1499991            293.15            293.15            293.15            293.15            293.15            293.15
   0.001416111804       293.1500067       293.1508515       293.1821321       293.4986237       293.6061335       293.4492347       293.1653934        293.150175       293.1499703       293.1499749       293.1499981       293.1499999            293.15            293.15            293.15            293.15            293.15
   0.001666544217       293.1500259       293.1521126       293.2031898       293.4699878       293.2856002       293.4667473       293.1772429       293.1505403       293.1499738        293.149968       293.1499963       293.1499999            293.15            293.15            293.15            293.15            293.15
   0.001916976631       293.1500777       293.1543694       293.2260504       293.4007318       293.1159493       293.4435081       293.1916939       293.1513271       293.1499933       293.1499606       293.1499935       293.1499996            293.15            293.15            293.15            293.15            293.15
   0.002167409044       293.1501968       293.1578901       293.2464942       293.3197897       293.0558747       293.3908037        293.206777       293.1527724       293.1500479       293.1499533       293.1499896       293.1499992            293.15            293.15            293.15            293.15            293.15
   0.002417841458       293.1504389       293.1627924       293.2604157       293.2494885       293.0559675       293.3264866        293.219996       293.1551185       293.1501706       293.1499472       293.1499842       293.1499985            293.15            293.15            293.15            293.15            293.15
   0.002668273871       293.1508844       293.1689618       293.2651839       293.2028637       293.0878531       293.2673659        293.229003       293.1585493       293.1504122       293.1499452       293.1499772       293.1499974       293.1499999            293.15            293.15            293.15            293.15
   0.002918706284       293.1516379       293.1760172       293.2604209        293.180773       293.1333736       293.2229796       293.2322484       293.1631207        293.150842       293.1499525       293.1499687       293.1499955       293.1499998            293.15            293.15            293.15            293.15
   0.003169138698       293.1528224       293.1833375       293.2479224       293.1772038       293.1806987       293.1954203        293.229369       293.1687041       293.1515468       293.1499778       293.1499592       293.1499927       293.1499996            293.15            293.15            293.15            293.15
   0.003419571111       293.1545674       293.1901378       293.2308281       293.1863008       293.2194613       293.1840332       293.2211594       293.1749632       293.1526246       293.1500343       293.1499498       293.1499887       293.1499992            293.15            293.15            293.15            293.15
   0.003670003524        293.156991       293.1955923       293.2126649       293.2028454       293.2390192       293.1858414       293.2092761       293.1813659       293.1541718        293.150142       293.1499427       293.1499832       293.1499985       293.1499999            293.15            293.15            293.15
   0.003920435938       293.1601781       293.1989871       293.1966038       293.2226657       293.2345527       293.1963189       293.1957853       293.1872291       293.1562662       293.1503285       293.1499415       293.1499762       293.1499974       293.1499998            293.15            293.15            293.15
   0.004170868351       293.1641545       293.1998518       293.1846982       293.2417325       293.2097659       293.2104766       293.1826096       293.1918109       293.1589467       293.1506298       293.1499516        293.149968       293.1499957       293.1499997            293.15            293.15            293.15
   0.004421300765       293.1688629       293.1980383       293.1776106       293.2568183       293.1742117       293.2238272       293.1712434       293.1944404       293.1621906       293.1510915       293.1499794       293.1499592       293.1499932       293.1499994            293.15            293.15            293.15
   0.004671733178        293.174142        293.193753       293.1751169       293.2661276       293.1373823        293.232965       293.1626785       293.1946443       293.1658938       293.1517652       293.1500341       293.1499513       293.1499896       293.1499989       293.1499999            293.15            293.15
   0.004922165591       293.1797211       293.1875487       293.1762844       293.2697691       293.1051745       293.2363172       293.1572743       293.1922503       293.1698559       293.1527052        293.150128       293.1499466       293.1499849       293.1499982       293.1499999            293.15            293.15
   0.005172598005        293.185227       293.1802892       293.1796516       293.2693877       293.0798713        293.233848       293.1547355       293.1874499       293.1737781       293.1539619       293.1502772       293.1499484       293.1499791       293.1499971       293.1499998            293.15            293.15
   0.005423030418       293.1902165       293.1729702       293.1837045       293.2673216       293.0598971       293.2281963       293.1543156       293.1807922       293.1772846       293.1555733       293.1505041       293.1499608       293.1499723       293.1499956       293.1499997            293.15            293.15
   0.005673462831       293.1942368       293.1664606       293.1874279       293.2657448       293.0432125       293.2216874       293.1551687       293.1731023       293.1799671       293.1575531       293.1508356       293.1499889       293.1499653       293.1499933       293.1499994            293.15            293.15
   0.005923895245        293.196901       293.1614017       293.1905004       293.2660172       293.0264004       293.2173628       293.1566429       293.1653387       293.1814492       293.1598784       293.1513038       293.1500385       293.1499592       293.1499904        293.149999       293.1499999            293.15
   0.006174327658       293.1979613       293.1582007       293.1931579       293.2684682       293.0086783       293.2153594       293.1584184       293.1583931       293.1814618       293.1624778       293.1519437       293.1501172       293.1499559       293.1499867       293.1499984       293.1499999            293.15
   0.006424760072        293.197358        293.157044       293.1959294       293.2725575       292.9903489       293.2148982       293.1605187       293.1529337       293.1799073       293.1652237       293.1527914       293.1502355       293.1499578       293.1499823       293.1499975       293.1499998            293.15
   0.006675192485       293.1952321       293.1579341       293.1993705       293.2773739       292.9722354       293.2149739       293.1631737       293.1493622       293.1768982       293.1679328       293.1538793       293.1504068       293.1499681       293.1499776       293.1499963       293.1499996            293.15
   0.006925624898       293.1918962       293.1607578       293.2038659       293.2821799       292.9548628       293.2150338       293.1666319       293.1478362       293.1727602       293.1703788       293.1552301       293.1506482         293.14999        293.149973       293.1499946       293.1499994            293.15
   0.007176057312       293.1878113       293.1653294       293.2095363       293.2866926        292.939721        293.213494       293.1710246       293.1482877        293.168004       293.1723203       293.1568492       293.1509803       293.1500272       293.1499696       293.1499924        293.149999       293.1499999
   0.007426489725       293.1835063       293.1713954       293.2162469       293.2909183       292.9217342       293.2144202       293.1763057       293.1504898       293.1632537       293.1735382       293.1587172       293.1514264       293.1500848       293.1499687       293.1499897       293.1499985       293.1499999
   0.007676922139       293.1794532       293.1787093       293.2236878       293.2949481       292.9022898        293.216212        293.182266       293.1542276       293.1591552       293.1738784       293.1607837        293.152012        293.150169       293.1499722       293.1499865       293.1499978       293.1499998
   0.007927354552       293.1760772       293.1869706       293.2314689       293.2987077        292.882545       293.2179191       293.1886052       293.1592912       293.1562979       293.1732912       293.1629627       293.1527626       293.1502889       293.1499821        293.149983       293.1499968       293.1499997
   0.008177786965       293.1737722       293.1958259       293.2392054       293.3021546       292.8637249       293.2189317       293.1949989       293.1654237       293.1551409       293.1718577       293.1651356       293.1537009       293.1504561        293.150001       293.1499797       293.1499955       293.1499995
   0.008428219379       293.1729389       293.2047614       293.2464627       293.3047133       292.8444792       293.2186971       293.2010124       293.1722674       293.1559479       293.1698018       293.1671583       293.1548414       293.1506847       293.1500318       293.1499772       293.1499938       293.1499993
   0.008678651792       293.1739345       293.2131323       293.2528076       293.3061687        292.824362       293.2170308       293.2061402       293.1794208       293.1587755       293.1674708       293.1688819       293.1561879        293.150992       293.1500782       293.1499764       293.1499918       293.1499989
   0.008929084205       293.1769872        293.220256       293.2578272       293.3063141       292.8028729       293.2138924       293.2098887       293.1864237       293.1634817       293.1653027        293.170176       293.1577285       293.1513975        293.150145       293.1499787       293.1499894       293.1499983
   0.009179516619       293.1822178       293.2255012       293.2611187       293.3050602       292.7799256       293.2092986       293.2118186       293.1927518       293.1697434       293.1637667       293.1709553       293.1594312       293.1519224        293.150239       293.1499858        293.149987       293.1499976
   0.009429949032       293.1894285       293.2284446       293.2623781       293.3024949       292.7558563       293.2033785         293.21169        293.197859       293.1770765       293.1632877       293.1712042       293.1612437       293.1525883       293.1503686       293.1499994       293.1499848       293.1499966
   0.009680381446       293.1981044       293.2288841       293.2615002       293.2988926       292.7312559        293.196324        293.209507       293.2012505       293.1848606       293.1641749       293.1709892       293.1630943       293.1534144       293.1505447       293.1500216       293.1499833       293.1499954
   0.009930813859       293.2074576       293.2268931       293.2586382        293.294691       292.7068116       293.1884703       293.2055408       293.2025608       293.1923734       293.1665706       293.1704602       293.1648976       293.1544156       293.1507799       293.1500548       293.1499832       293.1499939
    0.01018124627        293.216502       293.2228928       293.2542105       293.2904465       292.6832394       293.1802928       293.2003082       293.2017007       293.1988461       293.1704103       293.1698405       293.1665644       293.1555984       293.1510891       293.1501027       293.1499855       293.1499921
    0.01043167869       293.2241586       293.2175858       293.2488607       293.2867836       292.6612297       293.1724485       293.1945219       293.1988342       293.2035465        293.175396       293.1693969       293.1680139       293.1569587       293.1514886         293.15017       293.1499915       293.1499902
     0.0106821111       293.2293852       293.2118537       293.2433772       293.2843836        292.641268       293.1656828       293.1890077        293.194393       293.2058811       293.1810036       293.1693924       293.1691872       293.1584784       293.1519957       293.1502634       293.1500023       293.1499884
    0.01093254351       293.2313385       293.2066363       293.2386105        293.283664       292.6237201       293.1607249       293.1846015       293.1890304       293.2054916       293.1865344       293.1700325       293.1700577       293.1601241       293.1526272       293.1503909       293.1500197       293.1499869
    0.01118297593       293.2295084       293.2027889        293.235379       293.2850434       292.6088515       293.1581443       293.1820397       293.1835358       293.2023304       293.1912014       293.1714133       293.1706377       293.1618463       293.1533979       293.1505622       293.1500456       293.1499863
    0.01143340834       293.2238768       293.2009466       293.2343668       293.2885709       292.5967114       293.1583313       293.1818674       293.1787176       293.1967478        293.194236        293.173481       293.1709784       293.1635818       293.1543186       293.1507886       293.1500828       293.1499874
    0.01168384075       293.2150249       293.2014206       293.2360143       293.2942645       292.5871387       293.1612639       293.1843572       293.1752782       293.1894449       293.1950432       293.1760201       293.1711604       293.1652575       293.1553942       293.1510832       293.1501354        293.149991
    0.01193427317       293.2042845       293.2041431       293.2403898       293.3018834       292.5798261        293.166674       293.1894391       293.1737076       293.1813837       293.1932923       293.1786611       293.1712757       293.1667973       293.1566209       293.1514602       293.1502084       293.1499983
    0.01218470558       293.1932227       293.2087372        293.247202       293.3108491       292.5739764       293.1740205       293.1967011       293.1742158       293.1736597       293.1889999       293.1809253       293.1714042       293.1681297       293.1579842       293.1519345       293.1503081       293.1500102
    0.01243513799       293.1835272       293.2145865       293.2558199       293.3206913       292.5693248       293.1826817       293.2054701       293.1767051        293.167346       293.1825632       293.1823028       293.1715901       293.1691956       293.1594576       293.1525209       293.1504421       293.1500282
    0.01268557041       293.1768766        293.220957       293.2654046       293.3308857       292.5653724       293.1919622       293.2149167       293.1807965       293.1633375       293.1747529       293.1823466       293.1718205       293.1699531       293.1610014       293.1532325       293.1506192       293.1500542
    0.01293600282       293.1745937       293.2271613       293.2750349       293.3409725       292.5615913        293.201225       293.2242015       293.1859767       293.1622274       293.1666618        293.180767       293.1720152       293.1703805       293.1625628       293.1540792       293.1508497       293.1500912
    0.01318643523       293.1774546       293.2327069       293.2838396       293.3506117       292.5575592        293.209891       293.2326021        293.191742       293.1642434       293.1595047       293.1775096       293.1720324       293.1704743       293.1640781       293.1550656       293.1511451       293.1501431
    0.01343686765       293.1855278        293.237393        293.291119       293.3595908       292.5529915       293.2175283       293.2396128       293.1976882       293.1692391       293.1544642        293.172807       293.1716948       293.1702456       293.1654758       293.1561894       293.1515175       293.1502148
    0.01368730006        293.198076       293.2413434       293.2964418       293.3678061       292.5477264       293.2238704       293.2450097        293.203549       293.1767756       293.1524895       293.1671787        293.170821       293.1697141       293.1666819       293.1574381       293.1519796        293.150312
    0.01393773247       293.2139364       293.2449696       293.2997126       293.3752097       292.5415546       293.2288588       293.2488663       293.2092469       293.1862207       293.1541193        293.161391       293.1692857       293.1689015        293.167625       293.1587877       293.1525431       293.1504418
    0.01418816489       293.2314714        293.248868       293.3011804       293.3817126       292.5336672       293.2324726       293.2515191       293.2148652       293.1967914       293.1593729       293.1563634       293.1670429       293.1678261       293.1682415       293.1602014       293.1532183       293.1506121
     0.0144385973       293.2488753       293.2536743       293.3013899       293.3867987       292.5192627       293.2346364       293.2534944       293.2205951       293.2076112        293.167708       293.1530307       293.1641873       293.1665028       293.1684818       293.1616283       293.1540117       293.1508324
    0.01468902971       293.2645433       293.2598619        293.301067       293.3841085       292.4237815       293.2338585       293.2553858       293.2266468        293.217818       293.1781613        293.152168        293.160962       293.1649483       293.1683136       293.1630052        293.154925        293.151113
    0.01493946213       293.2773503       293.2676001        293.300813       293.3556947       292.1086988       293.2239993       293.2576627       293.2331447        293.226669        293.189491       293.1542674       293.1577595       293.1631915       293.1677263       293.1642584       293.1559527       293.1514651
    0.01518989454        293.286767       293.2766525       293.3008112       293.3098324       291.9425762       293.2001341       293.2604744        293.240031       293.2336404       293.2004262       293.1593884       293.1550837       293.1612834       293.1667332       293.1653085       293.1570805       293.1518999
    0.01544032695         293.29283       293.2863755       293.3006447       293.2595851       291.9492151       293.1636455       293.2635168       293.2469991       293.2385005        293.209877       293.1671459       293.1534743       293.1593075       293.1653729       293.1660767       293.1582832        293.152428
    0.01569075937       293.2959781        293.295872       293.2993748       293.2193007       292.0471455         293.12248       293.2660253       293.2534763       293.2413464       293.2171309       293.1767179       293.1534189       293.1573988       293.1637097        293.166492       293.1595238       293.1530583
    0.01594119178       293.2968452       293.3040621       293.2959333       293.1980682       292.1585118       293.0873099       293.2669478       293.2587595       293.2424636       293.2218336       293.1870332       293.1552699       293.1557356       293.1618336       293.1664988       293.1607531       293.1537964
    0.01619162419       293.2960901        293.309871       293.2896829       293.1975975       292.2415244       293.0663798       293.2652725       293.2620636       293.2422403       293.2240406       293.1969178       293.1591579         293.15454       293.1598576       293.1660644       293.1619109       293.1546432
    0.01644205661       293.2942585       293.3124299       293.2808285       293.2127543       292.2919961       293.0620535       293.2603674       293.2626979       293.2409997       293.2240784       293.2053121       293.1649318       293.1540561       293.1579151       293.1651848       293.1629289       293.1555929