# Probe 0 (2.4 0 1.5)
#           Probe                 0
#            Time
    1.1999904e-06      0.9999683232
  2.639965056e-06       0.999930307
  4.367944597e-06      0.9998846792
  6.441505713e-06      0.9998299138
   8.92973777e-06      0.9997641782
  1.191552707e-05      0.9996852715
  1.549838863e-05      0.9995905475
  1.979776087e-05      0.9994768255
  2.495674128e-05      0.9993402871
  3.114713435e-05      0.9991763373
  3.857523794e-05      0.9989794432
  4.748896225e-05      0.9987429342
  5.818543142e-05       0.998458783
  7.102064463e-05       0.998117326
  8.642131685e-05      0.9977069136
  0.0001049009832       0.997213432
  0.0001270765827       0.996619789
  0.0001536896689      0.9959052431
  0.0001856219625      0.9950448394
  0.0002239407148      0.9940079771
  0.0002699019884      0.9927580165
  0.0003250351347      0.9912495512
  0.0003911802278      0.9894267333
  0.0004705543394      0.9872204863
  0.0005658032734      0.9845456003
  0.0006799700095      0.9812993424
  0.0008169700928      0.9773440986
  0.0009814618316      0.9725042166
   0.001179117227      0.9665478025
   0.001416111804       0.959190934
   0.001666544217      0.9511680541
   0.001916976631      0.9429210258
   0.002167409044      0.9344543245
   0.002417841458      0.9257457135
   0.002668273871      0.9167738321
   0.002918706284       0.907523504
   0.003169138698      0.8979870719
   0.003419571111      0.8881621569
   0.003670003524      0.8780454219
   0.003920435938      0.8676281658
   0.004170868351      0.8568981599
   0.004421300765      0.8458438971
   0.004671733178      0.8344566839
   0.004922165591      0.8227292672
   0.005172598005      0.8106534872
   0.005423030418      0.7982197791
   0.005673462831      0.7854181651
   0.005923895245      0.7722389222
   0.006174327658      0.7586721523
   0.006424760072      0.7447076767
   0.006675192485       0.730335187
   0.006925624898      0.7155445172
   0.007176057312      0.7003255693
   0.007426489725      0.6846681371
   0.007676922139      0.6685619274
   0.007927354552      0.6519965417
   0.008177786965      0.6349615029
   0.008428219379      0.6174465488
   0.008678651792      0.5994412147
   0.008929084205      0.5809349831
   0.009179516619      0.5619172951
   0.009429949032      0.5423775727
   0.009680381446      0.5223052167
   0.009930813859      0.5016895918
    0.01018124627      0.4805199887
    0.01043167869       0.458785613
     0.0106821111      0.4364756385
    0.01093254351      0.4135793035
    0.01118297593      0.3900860037
    0.01143340834      0.3659853469
    0.01168384075      0.3412670722
    0.01193427317      0.3159213509
    0.01218470558      0.2899388929
    0.01243513799      0.2633107226
    0.01268557041       0.236028735
    0.01293600282      0.2080860824
    0.01318643523      0.1794779556
    0.01343686765      0.1502031581
    0.01368730006       0.120267665
    0.01393773247     0.08969423236
    0.01418816489     0.05855728101
     0.0144385973     0.02722206832
    0.01468902971    0.002199387491
    0.01493946213  -0.0001991800552
    0.01518989454   4.693023424e-05
    0.01544032695   0.0001546336216
    0.01569075937   0.0001597395623
    0.01594119178   0.0001337481117
    0.01619162419   0.0001112573634
    0.01644205661   0.0001038500449
    0.01669248902   0.0001046154017
    0.01694292143   0.0001087018995
    0.01719335385   0.0001129418631
    0.01744378626     0.00011385557
    0.01769421867   0.0001120941457
    0.01794465109   0.0001098037299
     0.0181950835   0.0001081540587
    0.01844551591   0.0001068270684
    0.01869594833   0.0001051897736
    0.01894638074   0.0001032333145
    0.01919681315   0.0001013203772
    0.01944724557   9.961511659e-05
    0.01969767798   9.786133167e-05
    0.01994811039    9.58212474e-05
    0.02019854281   9.361252175e-05
    0.02044897522   9.159968936e-05
    0.02069940763   9.006584348e-05
    0.02094984005   8.900084849e-05
    0.02120027246   8.822970297e-05
    0.02145070487   8.762755498e-05
    0.02170113729    8.72198683e-05
     0.0219515697   8.702632098e-05
    0.02220200211   8.692660369e-05
    0.02245243453   8.673416265e-05
    0.02270286694   8.633100366e-05
    0.02295329935   8.571130259e-05
    0.02320373177   8.491225438e-05
    0.02345416418   8.395007826e-05
    0.02370459659   8.273310088e-05
    0.02395502901   8.115110066e-05
    0.02420546142   7.919827124e-05
    0.02445589384   7.701478097e-05
    0.02470632625   7.481335147e-05
    0.02495675866   7.278390728e-05
    0.02520719108   7.103902268e-05
    0.02545762349   6.955101992e-05
     0.0257080559   6.817700589e-05
    0.02595848832   6.679199003e-05
    0.02620892073   6.540364032e-05
    0.02645935314   6.412123063e-05
    0.02670978556   6.301516296e-05
    0.02696021797   6.203256823e-05
    0.02721065038   6.105181083e-05
     0.0274610828   5.998222168e-05
    0.02771151521   5.880455465e-05
    0.02796194762   5.756124076e-05
    0.02821238004   5.630401124e-05
    0.02846281245   5.503150638e-05
    0.02871324486   5.373443966e-05
    0.02896367728   5.241301585e-05
    0.02921410969   5.110743899e-05
     0.0294645421   5.004098903e-05
    0.02971497452    4.91091599e-05
    0.02996540693   4.820649409e-05
    0.03021583934   4.734926489e-05
    0.03046627176   4.669816379e-05
    0.03071670417   4.621970637e-05
    0.03096713658   4.573646516e-05
      0.031217569     4.4942913e-05
    0.03146800141    4.41356726e-05
    0.03171843382   4.364478381e-05
    0.03196886624   4.313650204e-05
    0.03221929865   4.273868678e-05
    0.03246973106   4.221527436e-05
    0.03272016348   4.159278969e-05
    0.03297059589   4.095877067e-05
     0.0332210283   4.044647929e-05
    0.03347146072   4.000289592e-05
    0.03372189313   3.954674355e-05
    0.03397232554    3.90656669e-05
    0.03422275796    3.85638288e-05
    0.03447319037   3.806017892e-05
    0.03472362278   3.757449864e-05
     0.0349740552   3.708805326e-05
    0.03522448761   3.660414787e-05
    0.03547492002   3.616542169e-05
    0.03572535244   3.581319795e-05
    0.03597578485   3.553010936e-05
    0.03622621726   3.523924517e-05
    0.03647664968   3.484810431e-05
    0.03672708209    3.43195042e-05
     0.0369775145   3.369839628e-05
    0.03722794692   3.306724666e-05
    0.03747837933   3.242107623e-05
    0.03772881174   3.175757828e-05
    0.03797924416   3.105973131e-05
    0.03822967657   0.0007324325887
    0.03848010898    0.001696274961
     0.0387305414     0.00274396918
    0.03898097381    0.003798581337
    0.03923140622     0.00483684154
    0.03948183864    0.005859714153
    0.03973227105    0.006870689383
    0.03998270346    0.007867008555
    0.04023313588    0.008841127426
    0.04048356829    0.009789723073
     0.0407340007     0.01070845007
    0.04098443312     0.01159828962
    0.04123486553     0.01247184563
    0.04148529795     0.01331620761
    0.04173573036      0.0141242285
    0.04198616277     0.01489307964
    0.04223659519     0.01548639376
     0.0424870276     0.01613868415
    0.04273746001     0.01668037603
    0.04298789243     0.01717267434
    0.04323832484      0.0177564827
    0.04348875725     0.01839316318
    0.04373918967     0.01907109856
    0.04398962208     0.01977040841
    0.04424005449     0.02047495785
    0.04449048691     0.02118111402
    0.04474091932     0.02189313607
    0.04499135173     0.02262503033
    0.04524178415     0.02338628765
    0.04549221656     0.02417017277
    0.04574264897     0.02495504585
    0.04599308139     0.02572415974
     0.0462435138      0.0264555007
    0.04649394621     0.02714750533
    0.04674437863     0.02782323136
    0.04699481104      0.0284937134
    0.04724524345     0.02911134398
    0.04749567587     0.02969309442
    0.04774610828     0.03024466748
    0.04799654069     0.03077615957
    0.04824697311     0.03128416291
    0.04849740552     0.03182741566
    0.04874783793     0.03237925509
    0.04899827035     0.03287738997
    0.04924870276     0.03335048313
    0.04949913517     0.03380501555
    0.04974956759     0.03430320334
             0.05     0.03481792913
          0.05025     0.03533620417
           0.0505     0.03579536522
          0.05075     0.03628301146
            0.051     0.03671742335
          0.05125     0.03718248891
           0.0515     0.03759833156
          0.05175     0.03799150055
            0.052     0.03842251232
          0.05225     0.03886221334
           0.0525     0.03929775159
          0.05275     0.03967095555
            0.053     0.04001298649
          0.05325      0.0403451221
           0.0535     0.04067723023
          0.05375     0.04101489207
            0.054     0.04135691535
          0.05425     0.04169417249
           0.0545     0.04202755668
          0.05475     0.04235497894
            0.055     0.04267676642
          0.05525     0.04299451434
           0.0555      0.0433102293
          0.05575     0.04362592985
            0.056     0.04394377987
          0.05625     0.04425985145
           0.0565     0.04456761864
          0.05675     0.04486417106
            0.057     0.04515278653
          0.05725     0.04543767248
           0.0575      0.0457221884
          0.05775     0.04600646269
            0.058     0.04628630417
          0.05825     0.04656112524
           0.0585     0.04683047203
          0.05875     0.04709871812
            0.059     0.04736974799
          0.05925      0.0476455433
           0.0595     0.04792365207
          0.05975     0.04818086114
             0.06     0.04842772507
          0.06025     0.04866877343
           0.0605     0.04890662568
          0.06075     0.04914095306
            0.061     0.04937234308
          0.06125     0.04960351328
           0.0615     0.04982959909
          0.06175     0.05005005936
            0.062     0.05027210966
          0.06225     0.05049870204
           0.0625     0.05072517144
          0.06275     0.05094857796
            0.063     0.05117309205
          0.06325     0.05140027447
           0.0635     0.05162588526
          0.06375      0.0518445941
            0.064     0.05205971137
          0.06425      0.0522728184
           0.0645     0.05248602749
          0.06475     0.05270075987
            0.065     0.05291502834
          0.06525     0.05312700314
           0.0655     0.05336138452
          0.06575     0.05360298126
            0.066     0.05384643662
          0.06625      0.0540902882
           0.0665      0.0543340471
          0.06675     0.05457739738
            0.067     0.05481973413
          0.06725     0.05506094892
           0.0675        0.05530086
          0.06775     0.05553882882
            0.068     0.05577443276
          0.06825      0.0560073914
           0.0685     0.05623712498
          0.06875     0.05646277633
            0.069     0.05668381865
          0.06925     0.05690049583
           0.0695     0.05711383734
          0.06975     0.05732472992
             0.07     0.05753303986
          0.07025     0.05773827741
           0.0705     0.05794044059
          0.07075     0.05813998157
            0.071     0.05833719111
          0.07125      0.0585319978
           0.0715     0.05872447762
          0.07175     0.05891507059
            0.072     0.05910466488
          0.07225     0.05929392354
           0.0725     0.05948290256
          0.07275     0.05967103689
            0.073     0.05985761049
          0.07325     0.06004209365
           0.0735     0.06022429023
          0.07375     0.06040415272
            0.074     0.06058151723
          0.07425     0.06075604054
           0.0745     0.06092741264
          0.07475     0.06109550544
            0.075     0.06126031467
          0.07525     0.06142203843
           0.0755      0.0615810692
          0.07575      0.0617378165
            0.076     0.06189249664
          0.07625     0.06204510201
           0.0765      0.0621954515
          0.07675     0.06234352924
            0.077     0.06248978027
          0.07725     0.06263540692
           0.0775     0.06278152478
          0.07775     0.06292841058
            0.078     0.06307559642
          0.07825     0.06322255912
           0.0785     0.06336921896
          0.07875     0.06351595012
            0.079     0.06366283916
          0.07925     0.06380942996
           0.0795     0.06395500952
          0.07975     0.06409930657
             0.08     0.06424249692
          0.08025     0.06438485737
           0.0805     0.06452603882
          0.08075     0.06466528316
            0.081     0.06480242369
          0.08125     0.06493803045
           0.0815      0.0650728439
          0.08175     0.06520724871
            0.082     0.06534106314
          0.08225     0.06547397233
           0.0825     0.06560598801
          0.08275     0.06573752476
            0.083     0.06586900404
          0.08325     0.06600066236
           0.0835     0.06613253676
    0.08374626866     0.06626250094
    0.08399253731     0.06639228336
    0.08423880597     0.06652164743
    0.08448507463     0.06665058323
    0.08472749534      0.0667773455
    0.08496991604      0.0669040189
    0.08521233675     0.06703051636
    0.08545475746     0.06715672896
    0.08569320406     0.06728046122
    0.08593165066     0.06740380998
    0.08617009726     0.06752678279
    0.08640854386     0.06764921078
    0.08664287931      0.0677687301
    0.08687721476     0.06788717995
    0.08711155021     0.06800477959
    0.08734588566      0.0681221923
    0.08758022111     0.06823996675
    0.08781021702     0.06835598502
    0.08804021292     0.06847192972
    0.08827020883     0.06858718658
    0.08849578174     0.06869920025
    0.08872135464      0.0688101755
    0.08894692755     0.06892034855
      0.089167989     0.06902793361
    0.08938905045     0.06913569618
     0.0896101119     0.06924415648
    0.08983117335     0.06935359271
    0.09004753136     0.06946150462
    0.09026388937     0.06956984137
    0.09048024739     0.06967816201
     0.0906966054     0.06978624168
    0.09091296342     0.06989406677
    0.09112428985     0.06999932175
    0.09133561628     0.07010477055
    0.09154694271     0.07021041875
    0.09175826914     0.07031611455
    0.09196959558     0.07042154175
    0.09218092201     0.07052637588
    0.09238668722     0.07062771847
    0.09259245243     0.07072845292
    0.09279821764     0.07082886287
    0.09300398285     0.07092907365
    0.09320974806     0.07102889433
    0.09341551327     0.07112801776
    0.09361504317     0.07122344195
    0.09381457307     0.07131837802
    0.09401410297     0.07141297848
    0.09421363287     0.07150729321
    0.09441316277     0.07160108246
    0.09461269268      0.0716943764
    0.09481222258      0.0717878351
    0.09500436248     0.07187850886
    0.09519650239     0.07196991194
    0.09538864229     0.07206170148
    0.09558078219     0.07215345196
     0.0957729221     0.07224497503
      0.095965062     0.07233644338
    0.09615720191     0.07242818284
    0.09634934181     0.07252038828
    0.09654148172     0.07261298755
      0.096723509     0.07270082398
    0.09690553627     0.07278848939
    0.09708756355     0.07287579651
    0.09726959083     0.07296270989
    0.09745161811     0.07304932051
    0.09763364539     0.07313577577
    0.09781567266     0.07322219422
    0.09799769994     0.07330861334
    0.09817972722     0.07339499821
     0.0983617545     0.07348126494
    0.09854378178     0.07356730117
    0.09872580905      0.0736529857
    0.09890783633     0.07373821334
    0.09908986361     0.07382297229
    0.09927189089     0.07390746807
    0.09945391817     0.07399182718
    0.09963594544     0.07407607826
    0.09981797272     0.07416013012
              0.1      0.0742438552
     0.1001748252     0.07432391663
     0.1003490391     0.07440339477
     0.1005226438      0.0744824219
     0.1006956416     0.07456114371
     0.1008680344       0.074639663
     0.1010398245     0.07471800964
      0.101211014     0.07479615446
     0.1013816048     0.07487403223
     0.1015515992     0.07495158248
     0.1017209992     0.07502877639
     0.1018898069     0.07510562301
     0.1020580244     0.07518215203
     0.1022256536     0.07525853615
     0.1023926968     0.07533454145
     0.1025591559     0.07541034607
      0.102725033     0.07548602826
     0.1028903301     0.07556146085
     0.1030550492     0.07563646865
     0.1032191924     0.07571099418
     0.1033827616     0.07578518294
      0.103545759     0.07585897916
     0.1037081864     0.07593248574
     0.1038700459     0.07600570626
     0.1040313394     0.07607846336
      0.104192069     0.07615049915
     0.1043522366     0.07622163095
     0.1045112881       0.076291632
     0.1046697853     0.07636100352
     0.1048277303     0.07642990035
      0.104985125     0.07649836968
     0.1051419712     0.07656637428
     0.1052977283     0.07663363812
     0.1054529445     0.07670038497
     0.1056076218     0.07676670428
      0.105761762     0.07683272767
      0.105915367     0.07689854864
     0.1060684386     0.07696411917
     0.1062209787     0.07702927167
     0.1063729892     0.07709381777
     0.1065244719     0.07715765487
     0.1066759546     0.07722102331
     0.1068269095     0.07728381014
     0.1069773383     0.07734613353
     0.1071272431     0.07740804722
     0.1072766255     0.07746950954
     0.1074260079     0.07753063286
     0.1075748681     0.07759142398
     0.1077232077     0.07765183652
     0.1078710286     0.07771164992
     0.1080188496     0.07777125375
     0.1081661519     0.07783047624
     0.1083129373     0.07788933981
     0.1084592077     0.07794778498
     0.1086049649     0.07800576168
     0.1087502106     0.07806291339
     0.1088954563     0.07811943266
     0.1090401906     0.07817515072
     0.1091844153     0.07823011574
     0.1093281322      0.0782842142
      0.109471343     0.07833783547
     0.1096140495     0.07839125292
     0.1097562536     0.07844455245
     0.1098979569     0.07849767451
     0.1100396602     0.07855071679
     0.1101808628     0.07860321985
     0.1103215665     0.07865506214
     0.1104622702     0.07870637603
     0.1106024749     0.07875702763
     0.1107421824     0.07880714192
     0.1108813945     0.07885690808
     0.1110206067     0.07890672008
     0.1111593234     0.07895650302
     0.1112975464      0.0790062323
     0.1114357695     0.07905594374
     0.1115734989     0.07910525268
     0.1117107364     0.07915397649
     0.1118479739     0.07920222179
     0.1119847195     0.07924989577
      0.112120975     0.07929718109
     0.1122572304     0.07934443221
     0.1123929958     0.07939156374
     0.1125287612     0.07943869571
     0.1126640364      0.0794855275
     0.1127988233     0.07953194198
     0.1129336101     0.07957809018
     0.1130679087     0.07962390859
     0.1132022072      0.0796697346
     0.1133360173     0.07971554269
     0.1134693409     0.07976136027
     0.1136026645      0.0798072382
     0.1137355015     0.07985279033
     0.1138683384     0.07989794268
     0.1140006889     0.07994235759
     0.1141330393     0.07998615899
     0.1142649031     0.08002930543
     0.1143967669     0.08007219248
     0.1145281442     0.08011494543
     0.1146595214     0.08015794375
     0.1147904121      0.0802010979
     0.1149208179     0.08024430389
     0.1150512238     0.08028749248
     0.1151811449     0.08033024604
     0.1153105831     0.08037237956
       0.11543954     0.08041383262
     0.1155680175     0.08045465362
     0.1156964951     0.08049509247
     0.1158244932     0.08053509496
     0.1159520138     0.08057473731
     0.1160790585     0.08061407693
     0.1162056292     0.08065316335
     0.1163317276     0.08069203142
     0.1164573555     0.08073068102
     0.1165825146     0.08076905855
     0.1167076737     0.08080721482
     0.1168323641     0.08084492903
     0.1169565874     0.08088219878
     0.1170808108     0.08091926019
     0.1172045671     0.08095614355
     0.1173283235     0.08099315577
     0.1174516128     0.08103023936
     0.1175749022      0.0810674964
     0.1176981915     0.08110478632
     0.1178210121      0.0811417968
     0.1179438327      0.0811785543
     0.1180661844     0.08121492107
     0.1181885362     0.08125116497
     0.1183104192      0.0812873576
     0.1184323022     0.08132385657
     0.1185537164     0.08136066648
     0.1186751307     0.08139794756
     0.1187960761     0.08143543116
     0.1189165546     0.08147287761
     0.1190370331     0.08151014339
     0.1191570446     0.08154683231
     0.1192770561     0.08158295091
     0.1193966006     0.08161838297
     0.1195161451     0.08165345245
     0.1196352227     0.08168830062
     0.1197543002      0.0817233317
     0.1198729108     0.08175856423
     0.1199910563     0.08179398936
     0.1201092017     0.08183475425
      0.120226882     0.08187700153
      0.120344099     0.08191939993
      0.120461316     0.08196169524
     0.1205780697      0.0820036439
     0.1206943619     0.08204535711
     0.1208106541     0.08208169194
     0.1209264849     0.08211619795
     0.1210423156     0.08215022703
     0.1211581464     0.08218412213
     0.1212735138     0.08221780409
     0.1213888812     0.08225139659
     0.1215037853      0.0822847655
     0.1216186894     0.08231806965
     0.1217335935     0.08235133587
     0.1218480323     0.08238442997
     0.1219624712     0.08241744551
     0.1220764449      0.0824501754
     0.1221899553      0.0824825446
     0.1223034657     0.08251464733
     0.1224165128     0.08254637692
     0.1225295599     0.08258354683
     0.1226421436     0.08261677283
     0.1227547274     0.08264888371
     0.1228668479     0.08268072565
     0.1229789683     0.08271275986
     0.1230910888     0.08274505459
      0.123202744     0.08277741757
     0.1233143993     0.08280985423
     0.1234255893     0.08284209938
     0.1235367793     0.08287419787
     0.1236479693     0.08290612653
     0.1237586921     0.08293779629
     0.1238694149     0.08296941751
     0.1239801377      0.0830010856
     0.1240903914     0.08303275719
      0.124200645     0.08306462759
     0.1243108987     0.08309671605
     0.1244206812     0.08312886905
     0.1245304637     0.08316119235
     0.1246402461     0.08319365132
     0.1247500286     0.08322620904
     0.1248598111      0.0832588189
     0.1249691163     0.08329127662
     0.1250784214     0.08332364611
     0.1251877266      0.0833558467
     0.1252970318     0.08338782399
     0.1254058554     0.08341943625
     0.1255146791     0.08345088092
     0.1256235027     0.08348225566
     0.1257318427     0.08351352595
     0.1258401827     0.08354490711
     0.1259485227     0.08357642027
     0.1260563769     0.08360788455
      0.126164231     0.08363936361
     0.1262720852     0.08367078119
     0.1263794513     0.08370195423
     0.1264868174     0.08373304534
     0.1265941836     0.08376414063
     0.1267010594     0.08379520008
     0.1268079353     0.08382644658
     0.1269148112     0.08385789708
     0.1270211945     0.08388935236
     0.1271275779     0.08392085671
     0.1272334687     0.08395215278
     0.1273393596     0.08398327371
     0.1274447579     0.08401402791
     0.1275501562     0.08404457431
     0.1276550621     0.08407484174
     0.1277599679     0.08410507358
     0.1278643812     0.08413522725
     0.1279687945     0.08416551764
     0.1280732078     0.08419597765
     0.1281771262      0.0842264565
     0.1282810446     0.08425706878
     0.1283849631     0.08428777806
     0.1284883843      0.0843184061
     0.1285918056     0.08434908401
     0.1286952268     0.08437982525
     0.1287981484     0.08441047602
       0.12890107     0.08444120255
     0.1290039916     0.08447202845
     0.1291064112     0.08450283459
     0.1292088307     0.08453381299
     0.1293112503     0.08456500708
     0.1294136698     0.08459644526
     0.1295155824     0.08462796481
     0.1296174949     0.08465967155
     0.1297194074     0.08469147518
     0.1298208104     0.08472310535
     0.1299222133     0.08475462232
     0.1300236163     0.08478596981
     0.1301245071     0.08481699771
     0.1302253979     0.08484792811
     0.1303262888     0.08487885616
     0.1304271796      0.0849098745
      0.130527553     0.08494088327
     0.1306279265      0.0849720624
     0.1307282999     0.08500339731
     0.1308281533     0.08503469046
     0.1309280066     0.08506606658
       0.13102786     0.08509749599
     0.1311277134     0.08512895909
     0.1312270412     0.08516027917
      0.131326369     0.08519161583
     0.1314256969     0.08522296404
     0.1315250247     0.08525431784
     0.1316243525     0.08528567087
     0.1317231463     0.08531685034
     0.1318219401     0.08534802377
     0.1319207339     0.08537919161
     0.1320195277     0.08541035164
     0.1321177817      0.0854413244
     0.1322160356     0.08547226102
     0.1323142896       0.085503134
     0.1324120007     0.08554052695
     0.1325097118      0.0855800052
     0.1326074229     0.08562002829
      0.132705134     0.08565569766
     0.1328022962     0.08568736287
     0.1328994583     0.08571915779
     0.1329966205     0.08575021249
     0.1330937827     0.08578329492
     0.1331909448     0.08582083229
      0.133288107     0.08585993162
     0.1333847075     0.08589940852
     0.1334813081     0.08593915173
     0.1335779086      0.0859778145
     0.1336745092      0.0860172784
     0.1337705415     0.08605666429
     0.1338665738     0.08609596207
     0.1339626061     0.08613509045
     0.1340580667     0.08617382743
     0.1341535274     0.08621094127
     0.1342489881     0.08624906739
     0.1343444488     0.08628759156
     0.1344393309     0.08632608356
      0.134534213     0.08636278967
     0.1346290951      0.0863940707
     0.1347239773     0.08642950386
     0.1348182737     0.08646657285
     0.1349125702      0.0865040455
     0.1350068666     0.08654084057
      0.135101163     0.08657802748
     0.1351954595     0.08661540527
     0.1352897559     0.08665300553
     0.1353840523     0.08669089303
     0.1354777443     0.08672111397
     0.1355714363     0.08675688793
     0.1356651283     0.08679464274
     0.1357588202     0.08682527738
     0.1358525122     0.08686156753
     0.1359462042     0.08689179071
     0.1360398961     0.08692011539
     0.1361335881     0.08695598429
     0.1362266513     0.08698618925
     0.1363197144     0.08702275598
     0.1364127776     0.08706146845
     0.1365058408     0.08710083138
     0.1365989039     0.08713224645
     0.1366919671     0.08716090768
     0.1367850303     0.08718845239
     0.1368780934     0.08721542259
     0.1369711566     0.08724205914
     0.1370635598     0.08726836708
     0.1371559629     0.08729473671
      0.137248366     0.08732136452
     0.1373407692     0.08734840992
     0.1374331723     0.08737596249
      0.137524901     0.08740382062
     0.1376166297     0.08743210958
     0.1377083583     0.08746069983
      0.137800087     0.08748944174
     0.1378918157     0.08751820514
     0.1379835444     0.08755503159
      0.138075273     0.08758622619
     0.1381663015     0.08761526997
     0.1382573299     0.08764368834
     0.1383483584     0.08767194071
     0.1384393868     0.08770021756
     0.1385304153     0.08772859424
     0.1386214437     0.08775709937
     0.1387124722     0.08778574704
     0.1388035006      0.0878145475
     0.1388945291     0.08784351247
     0.1389855575     0.08787264454
      0.139076586     0.08790193615
     0.1391676144     0.08793134892
     0.1392578843     0.08796057156
     0.1393481542     0.08798976944
     0.1394384241     0.08801886744
     0.1395286939     0.08804781488
     0.1396189638     0.08807660378
     0.1397084555     0.08810502721
     0.1397979472     0.08813341231
     0.1398874389     0.08816186338
     0.1399769306      0.0881904875
     0.1400664223     0.08821937379
      0.140155914      0.0882485795
     0.1402454057     0.08827812098
     0.1403340838     0.08830770336
     0.1404227619     0.08833753672
     0.1405114401     0.08836753786
     0.1406001182      0.0883976127
     0.1406887963     0.08842767523
     0.1407774744     0.08845766564
     0.1408661526     0.08848756012
      0.140953978     0.08851708638
     0.1410418035     0.08854657484
     0.1411296289     0.08857608219
     0.1412174544     0.08860566195
     0.1413052799     0.08863535161
     0.1413931053     0.08866516771
     0.1414809308     0.08869510785
       0.14156786     0.08872485008
     0.1416547893      0.0887546823
     0.1417417186     0.08878459262
     0.1418286479     0.08881457823
     0.1419155772     0.08884464538
     0.1420025064     0.08887480842
     0.1420894357     0.08890509016
      0.142176365     0.08893552151
     0.1422632943     0.08896613616
     0.1423502235     0.08899696266
     0.1424371528     0.08902801131
     0.1425240821     0.08905928001
     0.1426110114     0.08909537958
     0.1426979407     0.08913702636
     0.1427848699      0.0891717508
     0.1428717992     0.08920408226
     0.1429576811     0.08923513034
     0.1430435631      0.0892658076
      0.143129445     0.08929630765
      0.143215327     0.08932675177
     0.1433012089     0.08935723818
     0.1433870908     0.08938785156
     0.1434729728      0.0894186574
     0.1435588547     0.08945736311
     0.1436447366     0.08949110017
     0.1437306186     0.08953221774
     0.1438165005      0.0895758049
     0.1439023825     0.08961959123
     0.1439882644     0.08966393761
     0.1440741463     0.08970834798
     0.1441588014     0.08975200365
     0.1442434564     0.08979069024
     0.1443281115     0.08982740547
     0.1444127665     0.08986838705
     0.1444974216     0.08991067003
     0.1445820766     0.08994690515
     0.1446667317     0.08998265303
     0.1447513868     0.09001379726
     0.1448360418     0.09004337009