# Probe 0 (3.4 0.005 1.5)
# Probe 1 (4.4 0.005 1.5)
# Probe 2 (5.4 0.005 1.5)
# Probe 3 (5.9 0.005 1.5)
# Probe 4 (6.2 0.005 1.5)
# Probe 5 (6.7 0.005 1.5)
# Probe 6 (8.2 0.005 1.5)
#           Probe                 0                 1                 2                 3                 4                 5                 6
#            Time
    1.1999904e-06       2.837806138       3.202527627       3.308459051       3.328202306       3.335404772       3.342627922        3.34974808
  2.639965056e-06       2.837804297       3.202525549       3.308456905       3.328200148       3.335402609       3.342625753       3.349745907
  4.367944597e-06       2.837802088       3.202523057        3.30845433       3.328197557       3.335400013       3.342623152         3.3497433
  6.441505713e-06       2.837799438       3.202520066        3.30845124       3.328194449       3.335396898        3.34262003       3.349740172
   8.92973777e-06       2.837796257       3.202516477       3.308447532       3.328190719        3.33539316       3.342616284       3.349736417
  1.191552707e-05       2.837792441        3.20251217       3.308443082       3.328186243       3.335388674       3.342611789       3.349731913
  1.549838863e-05       2.837787862       3.202507002       3.308437744       3.328180873       3.335383292       3.342606395       3.349726507
  1.979776087e-05       2.837782367       3.202500801       3.308431338       3.328174428       3.335376834       3.342599922       3.349720021
  2.495674128e-05       2.837775774        3.20249336       3.308423651       3.328166696       3.335369084       3.342592156       3.349712239
  3.114713435e-05       2.837767863       3.202484433       3.308414428       3.328157418       3.335359786       3.342582838       3.349702901
  3.857523794e-05       2.837758371       3.202473721       3.308403362       3.328146285        3.33534863       3.342571658       3.349691696
  4.748896225e-05       2.837746982       3.202460868       3.308390083       3.328132928       3.335335243       3.342558242       3.349678252
  5.818543142e-05       2.837733315       3.202445445       3.308374151         3.3281169       3.335319181       3.342542145       3.349662121
  7.102064463e-05       2.837716919       3.202426941       3.308355034        3.32809767       3.335299909       3.342522831       3.349642766
  8.642131685e-05       2.837697247       3.202404741         3.3083321       3.328074599       3.335276788        3.34249966       3.349619546
  0.0001049009832       2.837673647       3.202378107       3.308304586        3.32804692       3.335249049       3.342471861       3.349591687
  0.0001270765827       2.837645331       3.202346153       3.308271574       3.328013711       3.335215769       3.342438509       3.349558264
  0.0001536896689       2.837611358       3.202307813       3.308231966       3.327973867       3.335175838       3.342398492       3.349518162
  0.0001856219625       2.837570606       3.202261823       3.308184455       3.327926072        3.33512794        3.34235049       3.349470057
  0.0002239407148       2.837521721       3.202206653        3.30812746       3.327868737       3.335070481       3.342292906       3.349412351
  0.0002699019884        2.83746311       3.202140506       3.308059125       3.327799994        3.33500159       3.342223866       3.349343163
  0.0003250351347       2.837392842       3.202061197       3.307977192       3.327717573        3.33491899       3.342141087       3.349260208
  0.0003911802278       2.837308599       3.201966101       3.307878952       3.327618746       3.334819949       3.342041832       3.349160742
  0.0004705543394       2.837207605       3.201852065       3.307761143       3.327500235       3.334701181       3.341922807       3.349041463
  0.0005658032734        2.83708658       3.201715335        3.30761989       3.327358138       3.334558777       3.341780095       3.348898447
  0.0006799700095       2.836941822       3.201551609       3.307450749       3.327187988       3.334388259       3.341609207       3.348727195
  0.0008169700928       2.836768689       3.201355371        3.30724802       3.326984049       3.334183878       3.341404384       3.348521936
  0.0009814618316       2.836561913       3.201120088       3.307004954       3.326739533       3.333938833       3.341158808       3.348275837
   0.001179117227       2.836315481       3.200837851        3.30671338       3.326446219       3.333644885       3.340864223       3.347980625
   0.001416111804       2.836023403       3.200500133       3.306364486       3.326095245       3.333293151       3.340511727       3.347627378
   0.001666544217       2.835718605       3.200144089       3.305996652       3.325725218       3.332922324       3.340140097       3.347254956
   0.001916976631       2.835416903       3.199788893       3.305629677       3.325356057       3.332552363       3.339769336       3.346883405
   0.002167409044       2.835116717       3.199434565       3.305263559       3.324987759       3.332183269       3.339399442       3.346512723
   0.002417841458       2.834815908       3.199081134       3.304898295       3.324620321       3.331815037       3.339030412       3.346142908
   0.002668273871       2.834512351       3.198728652       3.304533881        3.32425374       3.331447664       3.338662244       3.345773955
   0.002918706284       2.834204487        3.19837719       3.304170314       3.323888013       3.331081147       3.338294934       3.345405862
   0.003169138698       2.833891678       3.198026845       3.303807594       3.323523138       3.330715485       3.337928481       3.345038629
   0.003419571111       2.833574306       3.197677722       3.303445714       3.323159106       3.330350669       3.337562876       3.344672245
   0.003670003524       2.833253736       3.197329941       3.303084675       3.322795917       3.329986698       3.337198119       3.344306712
   0.003920435938       2.832931774       3.196983608       3.302724479       3.322433567       3.329623569       3.336834207       3.343942024
   0.004170868351       2.832610181       3.196638794       3.302365129       3.322072052       3.329261279       3.336471135       3.343578181
   0.004421300765       2.832290387       3.196295507        3.30200663       3.321711372       3.328899823       3.336108902       3.343215177
   0.004671733178       2.831973529       3.195953677       3.301648995       3.321351528       3.328539204       3.335747509       3.342853015
   0.004922165591       2.831660392       3.195613102       3.301292224       3.320992511       3.328179409       3.335386942       3.342491682
   0.005172598005       2.831351182       3.195273469       3.300936337       3.320634328       3.327820439       3.335027203       3.342131179
   0.005423030418       2.831045405       3.194934332       3.300581355       3.320276979       3.327462294       3.334668288       3.341771504
   0.005673462831       2.830742185       3.194595165        3.30022731       3.319920469       3.327104973       3.334310195       3.341412653
   0.005923895245       2.830440723       3.194255433       3.299874237       3.319564802       3.326748477        3.33395292       3.341054623
   0.006174327658       2.830140539       3.193914698       3.299522176       3.319209981       3.326392806       3.333596461       3.340697412
   0.006424760072       2.829841506       3.193572722        3.29917117       3.318856016       3.326037964       3.333240815       3.340341015
   0.006675192485       2.829543749       3.193229548        3.29882126       3.318502919       3.325683952        3.33288598        3.33998543
   0.006925624898       2.829247443       3.192885525       3.298472476       3.318150707       3.325330773       3.332531956       3.339630655
   0.007176057312        2.82895266       3.192541281        3.29812483       3.317799403       3.324978431       3.332178742       3.339276685
   0.007426489725       2.828659327       3.192197649       3.297778316        3.31744904       3.324626945       3.331826346       3.338923526
   0.007676922139       2.828367212       3.191855505       3.297432865       3.317099633        3.32427631       3.331474753       3.338571159
   0.007927354552        2.82807605        3.19151568       3.297088387       3.316751217       3.323926553       3.331123972       3.338219589
   0.008177786965       2.827785587       3.191178808       3.296744718       3.316403803       3.323577674       3.330773985       3.337868793
   0.008428219379       2.827495463       3.190845303       3.296401727       3.316057464       3.323229755       3.330424851       3.337518826
   0.008678651792        2.82720503       3.190515162       3.296059152       3.315712154       3.322882765       3.330076521       3.337169628
   0.008929084205       2.826913638       3.190188175       3.295716816       3.315367878        3.32253675       3.329729021       3.336821214
   0.009179516619       2.826620778       3.189863886        3.29537457         3.3150246       3.322191733       3.329382364       3.336473583
   0.009429949032       2.826326183       3.189541653       3.295032354       3.314682257       3.321847729       3.329036563       3.336126731
   0.009680381446       2.826029902       3.189220687       3.294690217       3.314340758       3.321504741       3.328691636       3.335780654
   0.009930813859       2.825732322        3.18890009       3.294348325       3.313999989       3.321162755       3.328347602       3.335435351
    0.01018124627       2.825434082       3.188578922       3.294006952       3.313659825       3.320821736       3.328004482       3.335090819
    0.01043167869       2.825136007       3.188256295       3.293666447       3.313320144       3.320481627       3.327662295       3.334747056
     0.0106821111       2.824839022       3.187931491       3.293327184       3.312980848       3.320142346       3.327321058       3.334404059
    0.01093254351       2.824544034       3.187604081       3.292989484       3.312641878       3.319803791       3.326980779       3.334061827
    0.01118297593       2.824251824       3.187274009       3.292653533       3.312303228       3.319465849       3.326641462       3.333720358
    0.01143340834       2.823962946       3.186941683       3.292319317       3.311964948        3.31912841       3.326303092       3.333379651
    0.01168384075       2.823677646       3.186607959       3.291986598       3.311627142       3.318791377       3.325965645       3.333039706
    0.01193427317       2.823395813       3.186273994        3.29165492       3.311289939       3.318454687       3.325629076        3.33270052
    0.01218470558       2.823116978       3.185941158       3.291323673       3.310953482       3.318118327       3.325293335       3.332362107
    0.01243513799       2.822840329        3.18561078       3.290992152       3.310617839       3.317782283       3.324958315       3.332024442
    0.01268557041       2.822564902        3.18528401        3.29065974        3.31028305       3.317446614       3.324623939       3.331687539
    0.01293600282       2.822289744        3.18496158       3.290325999        3.30994905       3.317111384       3.324290108       3.331351404
    0.01318643523        2.82201409        3.18464373       3.289990799        3.30961568        3.31677666       3.323956726       3.331016042
    0.01343686765       2.821737438       3.184330205       3.289654389       3.309282718       3.316442487       3.323623706       3.330681458
    0.01368730006       2.821459592       3.184020363       3.289317411       3.308949921       3.316108876       3.323290981       3.330347662
    0.01393773247       2.821180662       3.183713341        3.28898084       3.308617084       3.315775799       3.322958504       3.330014662
    0.01418816489       2.820901023       3.183408181       3.288645855       3.308284119       3.315443198       3.322626254       3.329682468
     0.0144385973       2.820621241       3.183103931       3.288313663       3.307951091       3.315111016       3.322294238       3.329351092
    0.01468902971       2.820341961       3.182799657       3.287985283       3.307618269        3.31477922       3.321962487       3.329020545
    0.01493946213       2.820063726        3.18249455       3.287661342       3.307286116       3.314447824       3.321631054       3.328690835
    0.01518989454       2.819786807       3.182188001       3.287341935       3.306955243       3.314116941       3.321300015        3.32836197
    0.01544032695       2.819511071       3.181879681       3.287026545       3.306626316       3.313786795       3.320969467       3.328033952
    0.01569075937       2.819235905       3.181569597       3.286714126       3.306299949       3.313457707       3.320639527       3.327706776
    0.01594119178       2.818960316       3.181258066       3.286403308       3.305976589       3.313130073       3.320310328       3.327380429
    0.01619162419       2.818683196       3.180945508       3.286092593       3.305656405       3.312804297       3.319982012       3.327054888
    0.01644205661       2.818403668       3.180632342         3.2857806        3.30533922       3.312480729       3.319654742       3.326730114
    0.01669248902       2.818121358       3.180319225       3.285466368       3.305024505       3.312159587       3.319328688       3.326406059
    0.01694292143       2.817836517       3.180009226       3.285150397       3.304711469       3.311840901       3.319004016       3.326082657
    0.01719335385       2.817550001       3.179702706       3.284832707       3.304399121        3.31152447       3.318680878       3.325759834
    0.01744378626       2.817263148       3.179396695       3.284514591       3.304086422       3.311209874       3.318359388       3.325437505
    0.01769421867       2.816977551       3.179089659       3.284197287        3.30377247       3.310896476       3.318039606       3.325115586
    0.01794465109       2.816694774       3.178780078       3.283881156        3.30345668       3.310583523       3.317721513       3.324793998
     0.0181950835       2.816416079       3.178466419       3.283565597       3.303138887       3.310270206       3.317404994       3.324472679
    0.01844551591       2.816142241       3.178148453       3.283249237       3.302819408       3.309955793       3.317089841        3.32415159
    0.01869594833        2.81587348       3.177827517       3.282930358       3.302498959        3.30963979       3.316775751       3.323830724
    0.01894638074       2.815609468       3.177505869       3.282607544       3.302178435        3.30932205       3.316462346       3.323510115
    0.01919681315        2.81534939        3.17718609       3.282280321       3.301858654       3.309002839       3.316149226       3.323189855
    0.01944724557       2.815092004       3.176870509       3.281949516       3.301540009       3.308682713       3.315835923       3.322870011
    0.01969767798       2.814835957       3.176560928       3.281617302       3.301222452       3.308362512       3.315522086       3.322550752
    0.01994811039        2.81458001       3.176258275       3.281286483        3.30090544       3.308043068       3.315207461       3.322232247
    0.02019854281        2.81432324       3.175962559       3.280959939        3.30058816       3.307725022       3.314891965       3.321914676
    0.02044897522       2.814065107       3.175672917       3.280640203       3.300269872       3.307408652        3.31457572       3.321598214
    0.02069940763       2.813805423       3.175387885       3.280328915       3.299950289       3.307093802        3.31425905       3.321283002
    0.02094984005        2.81354424        3.17510571       3.280026319       3.299629871       3.306779955       3.313942434       3.320969136
    0.02120027246       2.813281694       3.174824647       3.279731143       3.299309845       3.306466443       3.313626421       3.320656649
    0.02145070487       2.813017884       3.174543171       3.279440984       3.298991963       3.306152733       3.313311521       3.320345515
    0.02170113729        2.81275282        3.17426001       3.279152869       3.298678065       3.305838679       3.312998106        3.32003565
     0.0219515697       2.812486469       3.173974212       3.278863748       3.298369577       3.305524645       3.312686331       3.319726917
    0.02220200211       2.812218828       3.173685179       3.278571091       3.298067014       3.305211502       3.312376103       3.319419139
    0.02245243453       2.811950017       3.173392754       3.278273347       3.297769745       3.304900422       3.312067133       3.319112107
    0.02270286694       2.811680344       3.173097195       3.277970127       3.297476135       3.304592482       3.311759028       3.318805595
    0.02295329935       2.811410351       3.172798903       3.277662134       3.297183898        3.30428828       3.311451424       3.318499378
    0.02320373177       2.811140794       3.172498585       3.277350902       3.296890522       3.303987726       3.311144099       3.318193259
    0.02345416418       2.810872605       3.172197123       3.277038398       3.296593843       3.303690008       3.310837042       3.317887086
    0.02370459659       2.810606733       3.171895422       3.276726569       3.296292527       3.303393702       3.310530452        3.31758078
    0.02395502901       2.810344118       3.171594317       3.276416923       3.295986358       3.303097069       3.310224654       3.317274342
    0.02420546142       2.810085471       3.171294517       3.276110297       3.295676215       3.302798511        3.30991997        3.31696786
    0.02445589384        2.80983124       3.170996785       3.275806842       3.295363792       3.302496977       3.309616595       3.316661498
    0.02470632625       2.809581501       3.170702018       3.275506152       3.295051177       3.302192216       3.309314523       3.316355482
    0.02495675866       2.809335922         3.1704109       3.275207495       3.294740361       3.301884801        3.30901352       3.316050073
    0.02520719108       2.809093675       3.170123827       3.274910095       3.294432849       3.301575954        3.30871319        3.31574554
    0.02545762349       2.808853506       3.169840854       3.274613364        3.29412939       3.301267247        3.30841309       3.315442125
     0.0257080559       2.808613923        3.16956164        3.27431702       3.293829927       3.300960215       3.308112868       3.315140009
    0.02595848832       2.808373443       3.169285482       3.274021092       3.293533745       3.300656013       3.307812341       3.314839282
    0.02620892073       2.808130645       3.169011428       3.273725816       3.293239755       3.300355192       3.307511528       3.314539921
    0.02645935314       2.807884358        3.16873843       3.273431479       3.292946818       3.300057644       3.307210652       3.314241785
    0.02670978556       2.807633893       3.168465416       3.273138272       3.292654044       3.299762722        3.30691006       3.313944627
    0.02696021797       2.807379187       3.168191404       3.272846198       3.292360957       3.299469496       3.306610136       3.313648116
    0.02721065038        2.80712081       3.167915556       3.272555065       3.292067507       3.299177025       3.306311211       3.313351888
     0.0274610828       2.806859846       3.167637249       3.272264558        3.29177394       3.298884594       3.306013499       3.313055593
    0.02771151521       2.806597671       3.167356139       3.271974363       3.291480627       3.298591846       3.305717086       3.312758959
    0.02796194762        2.80633569       3.167072158       3.271684258       3.291187882       3.298298806       3.305421947       3.312461842
    0.02821238004       2.806075108       3.166785461       3.271394138       3.290895846       3.298005786        3.30512799       3.312164264
    0.02846281245       2.805816754       3.166496444       3.271103986       3.290604449       3.297713226       3.304835105       3.311866419
    0.02871324486       2.805561025       3.166205735       3.270813808       3.290313464       3.297421504       3.304543204       3.311568653
    0.02896367728       2.805307903       3.165914174       3.270523553       3.290022617       3.297130799       3.304252234       3.311271409
    0.02921410969       2.805057047       3.165622754       3.270233067        3.28973169       3.296841027       3.303962158       3.310975165
     0.0294645421        2.80480792       3.165332535        3.26994211       3.289440593       3.296551868       3.303672927       3.310680353
    0.02971497452       2.804559917       3.165044535       3.269650437       3.289149365       3.296262871       3.303384442       3.310387288
    0.02996540693       2.804312479       3.164759623       3.269357904       3.288858133       3.295973591       3.303096532       3.310096108
    0.03021583934       2.804065165       3.164478428        3.26906457       3.288567032       3.295683714       3.302808957       3.309806758
    0.03046627176       2.803817723        3.16420128       3.268770775       3.288276181       3.295393172       3.302521457       3.309519035
    0.03071670417       2.803570012       3.163928095       3.268476997       3.287985515       3.295102022       3.302233674       3.309232503
    0.03096713658       2.803322139       3.163658716       3.268183976       3.287695009       3.294810587       3.301945396        3.30894675
      0.031217569       2.803074356       3.163392701        3.26789246        3.28740461       3.294519234       3.301656482       3.308661326
    0.03146800141       2.802827038       3.163129363       3.267603122       3.287114344       3.294228302       3.301366927       3.308375843
    0.03171843382       2.802580621       3.162867863       3.267316465       3.286824372       3.293938045        3.30107688       3.308090037
    0.03196886624       2.802335513       3.162607307       3.267032779       3.286534999       3.293648606       3.300786623       3.307803796
    0.03221929865       2.802092007        3.16234684       3.266752138       3.286246637       3.293360046       3.300496531       3.307517178
    0.03246973106       2.801850219       3.162085729       3.266474446       3.285959728       3.293072401       3.300207013       3.307230388
    0.03272016348       2.801610062       3.161823426       3.266199486       3.285674671        3.29278574       3.299918448       3.306943741
    0.03297059589       2.801371282       3.161559617       3.265926946       3.285391755       3.292500202       3.299631126       3.306657603
     0.0332210283       2.801133534       3.161294244       3.265656417       3.285111126       3.292215996       3.299345217       3.306372322
    0.03347146072       2.800896475       3.161027462       3.265387359       3.284832785       3.291933365       3.299060758       3.306088171
    0.03372189313       2.800659852       3.160759536       3.265119088       3.284556601       3.291652529       3.298777674        3.30580529
    0.03397232554       2.800423541       3.160490746       3.264850794       3.284282339       3.291373627        3.29849582       3.305523667
    0.03422275796       2.800187545       3.160221323       3.264581602       3.284009667       3.291096666       3.298215034       3.305243141
    0.03447319037       2.799951919       3.159951424        3.26431066       3.283738162       3.290821509       3.297935191       3.304963438
    0.03472362278       2.799716696       3.159681188       3.264037258       3.283467311       3.290547881       3.297656235        3.30468422
     0.0349740552       2.799481833       3.159410767       3.263760942       3.283196522        3.29027539       3.297378184       3.304405152
    0.03522448761       2.799247185       3.159140324        3.26348161       3.282925163       3.290003575       3.297101117       3.304125967
    0.03547492002       2.799012506       3.158870041       3.263199563       3.282652614       3.289731945       3.296825129       3.303846511
    0.03572535244       2.798777515       3.158600142       3.262915505        3.28237836       3.289460014       3.296550277       3.303566772
    0.03597578485        2.79854197       3.158330924       3.262630472       3.282102075       3.289187346       3.296276535       3.303286868
    0.03622621726       2.798305749       3.158062724       3.262345704       3.281823701       3.288913587       3.296003757       3.303007025
    0.03647664968       2.798068911       3.157795841       3.262062447       3.281543495       3.288638516       3.295731676       3.302727527
    0.03672708209       2.797831728       3.157530491        3.26178174       3.281262019       3.288362071       3.295459924       3.302448668
     0.0369775145       2.797594668       3.157266781       3.261504224       3.280980093       3.288084386       3.295188093       3.302170703
    0.03722794692       2.797358304       3.157004724       3.261230022       3.280698675       3.287805789       3.294915796       3.301893812
    0.03747837933       2.797123199       3.156744291       3.260958744       3.280418726       3.287526781       3.294642738        3.30161809
    0.03772881174        2.79688979       3.156485483       3.260689617       3.280141043       3.287247988       3.294368784       3.301343542
    0.03797924416       2.796658276       3.156228382       3.260421721        3.27986612       3.286970076       3.294093983       3.301070105
    0.03822967657       2.796428615       3.155973144       3.260154245       3.279594052       3.286693647       3.293818578       3.300797666
    0.03848010898       2.796200525       3.155719916       3.259886677       3.279324527       3.286419144       3.293542966       3.300526092
     0.0387305414       2.795973487       3.155468711       3.259618881       3.279056902        3.28614677       3.293267632       3.300255247
    0.03898097381        2.79574678       3.155219312       3.259351047       3.278790352       3.285876448       3.292993077       3.299985014
    0.03923140622        2.79551964       3.154971247       3.259083539       3.278524058       3.285607844       3.292719729         3.2997153
    0.03948183864       2.795291439       3.154723838       3.258816715       3.278257378        3.28534044       3.292447878       3.299446035
    0.03973227105       2.795061742       3.154476312       3.258550804        3.27798996       3.285073646       3.292177637       3.299177173
    0.03998270346       2.794830556       3.154227944       3.258285849       3.277721773       3.284806927       3.291908925        3.29890869
    0.04023313588        2.79459816       3.153978162       3.258021751        3.27745306       3.284539907         3.2916415       3.298640573
    0.04048356829       2.794365082       3.153726595       3.257758339       3.277184235       3.284272429       3.291375005       3.298372821
     0.0407340007       2.794131973       3.153473094       3.257495449       3.276915764       3.284004566       3.291109037        3.29810544
    0.04098443312       2.793899534        3.15321769        3.25723296       3.276648064       3.283736569       3.290843221       3.297838439
    0.04123486553       2.793668301       3.152960528       3.256970792       3.276381447       3.283468787       3.290577269       3.297571834
    0.04148529795       2.793438734       3.152701962       3.256708884       3.276116088       3.283201575       3.290311025       3.297305642
    0.04173573036       2.793210885        3.15244259       3.256447172       3.275852043       3.282935225       3.290044474       3.297039878
    0.04198616277       2.792984699       3.152183236       3.256185589       3.275589257       3.282669919       3.289777736       3.296774561
    0.04223659519       2.792759734       3.151924862       3.255924091        3.27532759       3.282405722       3.289511031       3.296509703
     0.0424870276       2.792535275       3.151668417       3.255662677        3.27506684       3.282142597       3.289244637       3.296245312
    0.04273746001       2.792310736         3.1514147       3.255401405       3.274806763       3.281880435        3.28897884       3.295981394
    0.04298789243       2.792085215        3.15116421       3.255140372       3.274547114        3.28161909       3.288713894       3.295717952
    0.04323832484       2.791859105       3.150917053        3.25487968       3.274287684       3.281358409       3.288449985       3.295454982
    0.04348875725       2.791631923       3.150672988       3.254619408        3.27402833        3.28109826       3.288187216       3.295192476
    0.04373918967       2.791403263       3.150431477       3.254359604       3.273768992        3.28083855       3.287925603       3.294930415
    0.04398962208       2.791172999       3.150191769       3.254100314       3.273509688       3.280579238        3.28766509       3.294668768
    0.04424005449       2.790941265       3.149953028       3.253841614       3.273250486       3.280320338       3.287405564       3.294407492
    0.04449048691       2.790708722       3.149714437       3.253583656       3.272991473       3.280061903       3.287146889       3.294146533
    0.04474091932        2.79047641       3.149475255       3.253326668       3.272732726       3.279804002       3.286888934       3.293885832
    0.04499135173       2.790245503       3.149234866       3.253070916       3.272474314       3.279546678       3.286631592        3.29362534
    0.04524178415       2.790016971        3.14899283       3.252816621       3.272216311       3.279289921         3.2863748       3.293365023