Simulation_Iteration,Time,deltaT,PIMPLE_Iterations
1,1.19999040008e-06,1.1999904e-06,
2,17.11,1.439974656e-06,33
3,30.67,1.727979541e-06,29
4,42.11,2.073561115e-06,27
5,53.07,2.488232057e-06,26
6,64.07,2.985789301e-06,26
7,74.63,3.582861559e-06,25
8,84.99,4.299372236e-06,25
9,94.84,5.158980413e-06,24
10,104.72,6.190393071e-06,24
11,114.6,7.428103592e-06,24
12,124.67,8.913724311e-06,24
13,134.83,1.069646917e-05,24
14,144.85,1.28352132e-05,24
15,154.79,1.540067223e-05,24
16,164.67,1.84796663e-05,24
17,174.72,2.217559956e-05,24
18,184.79,2.661308614e-05,24
19,195.02,3.193229361e-05,24
20,205.18,3.831875234e-05,24
21,215.38,4.596127358e-05,24
22,225.4,5.513314635e-05,24
23,235.49,6.614509303e-05,24
24,245.55,7.937411164e-05,24
25,255.69,9.524893396e-05,24
26,265.91,0.0001141667361,24
27,276.09,0.0001370000833,24
28,286.21,0.0001644917388,24
29,296.37,0.0001976553958,24
30,306.48,0.0002369945766,24
31,316.52,0.0002504324134,24
32,326.14,0.0002504324134,23
33,335.85,0.0002504324134,23
34,345.65,0.0002504324134,23
35,355.43,0.0002504324134,23
36,365.04,0.0002504324134,23
37,374.7,0.0002504324134,23
38,384,0.0002504324134,22
39,393.27,0.0002504324134,22
40,402.53,0.0002504324134,22
41,411.73,0.0002504324134,22
42,420.82,0.0002504324134,22
43,430.15,0.0002504324134,22
44,438.87,0.0002504324134,21
45,447.74,0.0002504324134,21
46,456.42,0.0002504324134,21
47,465.27,0.0002504324134,21
48,474,0.0002504324134,21
49,482.9,0.0002504324134,21
50,491.77,0.0002504324134,21
51,500.62,0.0002504324134,21
52,509.33,0.0002504324134,21
53,518.07,0.0002504324134,21
54,526.95,0.0002504324134,21
55,535.27,0.0002504324134,20
56,543.66,0.0002504324134,20
57,552.07,0.0002504324134,20
58,561.78,0.0002504324134,23
59,570.24,0.0002504324134,20
60,578.79,0.0002504324134,20
61,587.23,0.0002504324134,20
62,595.57,0.0002504324134,20
63,603.99,0.0002504324134,20
64,612.4,0.0002504324134,20
65,620.89,0.0002504324134,20
66,629.2,0.0002504324134,20
67,637.56,0.0002504324134,20
68,646,0.0002504324134,20
69,654.41,0.0002504324134,20
70,662.84,0.0002504324134,20
71,671.29,0.0002504324134,20
72,679.62,0.0002504324134,20
73,688,0.0002504324134,20
74,696.01,0.0002504324134,19
75,704.04,0.0002504324134,19
76,712.01,0.0002504324134,19
77,719.96,0.0002504324134,19
78,727.98,0.0002504324134,19
79,736.02,0.0002504324134,19
80,743.97,0.0002504324134,19
81,751.96,0.0002504324134,19
82,759.79,0.0002504324134,19
83,767.6,0.0002504324134,19
84,775.56,0.0002504324134,19
85,783.41,0.0002504324134,19
86,791.54,0.0002504324134,19
87,799.55,0.0002504324134,19
88,807.53,0.0002504324134,19
89,815.52,0.0002504324134,19
90,823.37,0.0002504324134,19
91,831.18,0.0002504324134,19
92,839.1,0.0002504324134,19
93,847,0.0002504324134,19
94,855.1,0.0002504324134,19
95,863.09,0.0002504324134,19
96,871.07,0.0002504324134,19
97,879.09,0.0002504324134,19
98,886.87,0.0002504324134,19
99,894.7,0.0002504324134,19
100,902.51,0.0002504324134,19
101,910.34,0.0002504324134,19
102,917.83,0.0002504324134,18
103,925.4,0.0002504324134,18
104,932.96,0.0002504324134,18
105,940.43,0.0002504324134,18
106,947.87,0.0002504324134,18
107,955.32,0.0002504324134,18
108,962.74,0.0002504324134,18
109,970.21,0.0002504324134,18
110,977.81,0.0002504324134,18
111,985.29,0.0002504324134,18
112,993.01,0.0002504324134,18
113,1000.58,0.0002504324134,18
114,1008.03,0.0002504324134,18
115,1015.51,0.0002504324134,18
116,1022.93,0.0002504324134,18
117,1030.34,0.0002504324134,18
118,1037.8,0.0002504324134,18
119,1045.26,0.0002504324134,18
120,1052.79,0.0002504324134,18
121,1060.26,0.0002504324134,18
122,1067.81,0.0002504324134,18
123,1075.39,0.0002504324134,18
124,1082.97,0.0002504324134,18
125,1090.54,0.0002504324134,18
126,1098.09,0.0002504324134,18
127,1105.66,0.0002504324134,18
128,1113.25,0.0002504324134,18
129,1120.87,0.0002504324134,18
130,1128.42,0.0002504324134,18
131,1135.88,0.0002504324134,18
132,1143.32,0.0002504324134,18
133,1150.74,0.0002504324134,18
134,1158.18,0.0002504324134,18
135,1165.63,0.0002504324134,18
136,1173.22,0.0002504324134,18
137,1180.8,0.0002504324134,18
138,1188.37,0.0002504324134,18
139,1196.06,0.0002504324134,18
140,1203.67,0.0002504324134,18
141,1211.18,0.0002504324134,18
142,1218.84,0.0002504324134,18
143,1226.38,0.0002504324134,18
144,1233.95,0.0002504324134,18
145,1241.45,0.0002504324134,18
146,1248.85,0.0002504324134,18
147,1255.83,0.0002504324134,17
148,1262.9,0.0002504324134,17
149,1270,0.0002504324134,17
150,1277.01,0.0002504324134,17
151,1284.16,0.0002504324134,17
152,1291.21,0.0002504324134,17
153,1298.26,0.0002504324134,17
154,1305.36,0.0002504324134,17
155,1312.39,0.0002504324134,17
156,1319.41,0.0002504324134,17
157,1326.6,0.0002504324134,17
158,1333.66,0.0002504324134,17
159,1340.82,0.0002504324134,17
160,1347.85,0.0002504324134,17
161,1354.85,0.0002504324134,17
162,1361.92,0.0002504324134,17
163,1368.94,0.0002504324134,17
164,1376.11,0.0002504324134,17
165,1383.22,0.0002504324134,17
166,1390.3,0.0002504324134,17
167,1397.33,0.0002504324134,17
168,1404.4,0.0002504324134,17
169,1411.36,0.0002504324134,17
170,1418.46,0.0002504324134,17
171,1425.53,0.0002504324134,17
172,1432.61,0.0002504324134,17
173,1439.64,0.0002504324134,17
174,1446.61,0.0002504324134,17
175,1453.64,0.0002504324134,17
176,1460.78,0.0002504324134,17
177,1467.95,0.0002504324134,17
178,1474.99,0.0002504324134,17
179,1482.16,0.0002504324134,17
180,1489.16,0.0002504324134,17
181,1496.14,0.0002504324134,17
182,1503.06,0.0002504324134,17
183,1509.99,0.0002504324134,17
184,1516.91,0.0002504324134,17
185,1523.93,0.0002504324134,17
186,1530.81,0.0002504324134,17
187,1537.76,0.0002504324134,17
188,1544.68,0.0002504324134,17
189,1551.56,0.0002504324134,17
190,1558.43,0.0002504324134,17
191,1565.34,0.0002504324134,17
192,1572.26,0.0002504324134,17
193,1579.16,0.0002504324134,17
194,1586.14,0.0002504324134,17
195,1593.07,0.0002504324134,17
196,1600.11,0.0002504324134,17
197,1607.05,0.0002504324134,17
198,1614,0.0002504324134,17
199,1621.09,0.0002504324134,17
200,1628.14,0.0002504324134,17
201,1635.09,0.0002504324134,17
202,1642.04,0.0002504324134,17
203,1648.97,0.0002504324134,17
204,1655.93,0.0002504324134,17
205,1662.9,0.0002504324134,17
206,1669.82,0.0002504324134,17
207,1676.81,0.0002504324134,17
208,1683.82,0.0002504324134,17
209,1690.39,0.0002504324134,16
210,1696.96,0.0002504324134,16
211,1703.5,0.0002504324134,16
212,1710.09,0.0002504324134,16
213,1716.69,0.0002504324134,16
214,1723.39,0.0002504324134,16
215,1729.99,0.0002504324134,16
216,1736.71,0.0002504324134,16
217,1743.36,0.0002504324134,16
218,1750,0.0002504324134,16
219,1756.57,0.0002504324134,16
220,1763.16,0.0002504324134,16
221,1769.66,0.0002504324134,16
222,1776.18,0.0002504324134,16
223,1782.78,0.0002504324134,16
224,1789.35,0.0002504324134,16
225,1795.94,0.00025,16
226,1802.61,0.00025,16
227,1809.1,0.00025,16
228,1815.57,0.00025,16
229,1822.16,0.00025,16
230,1828.7,0.00025,16
231,1835.19,0.00025,16
232,1841.74,0.00025,16
233,1848.3,0.00025,16
234,1854.85,0.00025,16
235,1861.42,0.00025,16
236,1868.02,0.00025,16
237,1874.58,0.00025,16
238,1881.09,0.00025,16
239,1887.73,0.00025,16
240,1894.33,0.00025,16
241,1900.87,0.00025,16
242,1907.48,0.00025,16
243,1914.06,0.00025,16
244,1920.66,0.00025,16
245,1927.27,0.00025,16
246,1933.79,0.00025,16
247,1940.41,0.00025,16
248,1946.97,0.00025,16
249,1953.55,0.00025,16
250,1960.15,0.00025,16
251,1966.81,0.00025,16
252,1973.34,0.00025,16
253,1979.89,0.00025,16
254,1986.46,0.00025,16
255,1993.06,0.00025,16
256,1999.57,0.00025,16
257,2006.08,0.00025,16
258,2012.58,0.00025,16
259,2019.05,0.00025,16
260,2025.58,0.00025,16
261,2032.2,0.00025,16
262,2038.75,0.00025,16
263,2045.33,0.00025,16
264,2051.88,0.00025,16
265,2058.37,0.00025,16
266,2064.9,0.00025,16
267,2071.43,0.00025,16
268,2077.94,0.00025,16
269,2084.45,0.00025,16
270,2090.93,0.00025,16
271,2097.48,0.00025,16
272,2104.06,0.00025,16
273,2110.64,0.00025,16
274,2117.22,0.00025,16
275,2123.73,0.00025,16
276,2130.31,0.00025,16
277,2136.87,0.00025,16
278,2143.41,0.00025,16
279,2149.95,0.00025,16
280,2156.47,0.00025,16
281,2162.99,0.00025,16
282,2169.61,0.00025,16
283,2176.17,0.00025,16
284,2182.73,0.00025,16
285,2188.93,0.00025,15
286,2195.1,0.00025,15
287,2201.21,0.00025,15
288,2207.39,0.00025,15
289,2213.51,0.00025,15
290,2219.63,0.00025,15
291,2225.7,0.00025,15
292,2231.79,0.00025,15
293,2237.93,0.00025,15
294,2244.06,0.00025,15
295,2250.28,0.00025,15
296,2256.47,0.00025,15
297,2262.72,0.00025,15
298,2268.98,0.00025,15
299,2275.13,0.00025,15
300,2281.4,0.00025,15
301,2287.55,0.00025,15
302,2293.63,0.00025,15
303,2299.79,0.00025,15
304,2305.92,0.00025,15
305,2312.05,0.00025,15
306,2318.18,0.00025,15
307,2324.29,0.00025,15
308,2330.39,0.0002478813559,15
309,2336.49,0.0002457806665,15
310,2342.66,0.0002436977795,15
311,2348.91,0.0002436977795,15
312,2355.18,0.0002416148925,15
313,2361.43,0.0002395498079,15
314,2367.59,0.0002395498079,15
315,2373.7,0.0002374847234,15
316,2379.89,0.0002354374413,15
317,2385.95,0.0002354374413,15
318,2392.01,0.0002333901592,15
319,2398.07,0.0002333901592,15
320,2404.16,0.0002333901592,15
321,2410.27,0.0002313247595,15
322,2416.39,0.0002292776378,15
323,2422.52,0.0002292776378,15
324,2428.73,0.000227230516,15
325,2434.95,0.0002252016721,15
326,2441.2,0.0002231909429,15
327,2447.37,0.0002231909429,15
328,2453.66,0.0002211802137,15
329,2459.81,0.0002211802137,15
330,2465.94,0.0002191694845,15
331,2472.03,0.0002191694845,15
332,2478.1,0.0002171587552,15
333,2484.14,0.0002151664731,15
334,2490.31,0.0002151664731,15
335,2496.4,0.0002131741909,15
336,2502.48,0.0002131741909,15
337,2508.63,0.0002111819088,15
338,2514.35,0.0002111819088,14
339,2520.07,0.0002091896266,14
340,2525.72,0.0002091896266,14
341,2531.38,0.0002091896266,14
342,2537.02,0.0002071781879,14
343,2542.66,0.0002071781879,14
344,2548.3,0.0002051667492,14
345,2553.97,0.0002051667492,14
346,2559.65,0.0002031553105,14
347,2565.41,0.0002031553105,14
348,2571.2,0.0002011438717,14
349,2576.91,0.0002011438717,14
350,2582.64,0.000199132433,14
351,2588.35,0.000199132433,14
352,2594.07,0.0001971209943,14
353,2599.79,0.0001951298732,14
354,2605.46,0.0001951298732,14
355,2611.21,0.000193138752,14
356,2616.86,0.000193138752,14
357,2622.59,0.0001911476308,14
358,2628.35,0.0001891770367,14
359,2634.03,0.0001891770367,14
360,2639.68,0.0001872064426,14
361,2645.4,0.0001872064426,14
362,2651.12,0.0001852358484,14
363,2656.8,0.0001852358484,14
364,2662.54,0.0001832652543,14
365,2668.33,0.0001832652543,14
366,2674.03,0.0001812946602,14
367,2679.71,0.0001812946602,14
368,2685.48,0.0001812946602,14
369,2691.24,0.0001793024112,14
370,2696.99,0.0001793024112,14
371,2702.76,0.0001773101622,14
372,2708.49,0.0001773101622,14
373,2714.28,0.0001773101622,14
374,2719.95,0.0001773101622,14
375,2725.63,0.0001752721143,14
376,2731.31,0.0001752721143,14
377,2737.01,0.0001752721143,14
378,2742.71,0.0001732100894,14
379,2748.49,0.0001732100894,14
380,2754.3,0.0001732100894,14
381,2760.01,0.0001732100894,14
382,2765.74,0.0001732100894,14
383,2771.55,0.0001710716933,14
384,2777.22,0.0001710716933,14
385,2782.46,0.0001710716933,13
386,2787.83,0.0001710716933,13
387,2793.15,0.0001688784664,13
388,2798.51,0.0001688784664,13
389,2803.83,0.0001688784664,13
390,2809.19,0.0001666563814,13
391,2814.66,0.0001666563814,13
392,2820.14,0.0001666563814,13
393,2825.49,0.0001644042681,13
394,2830.8,0.0001644042681,13
395,2836.09,0.0001644042681,13
396,2841.35,0.0001621208755,13
397,2846.69,0.0001621208755,13
398,2851.96,0.0001621208755,13
399,2857.34,0.000159804863,13
400,2862.71,0.000159804863,13
401,2868.12,0.000159804863,13
402,2873.45,0.000159804863,13
403,2878.78,0.0001574197158,13
404,2884.05,0.0001574197158,13
405,2889.33,0.0001574197158,13
406,2894.6,0.0001574197158,13
407,2899.85,0.0001549600327,13
408,2905.14,0.0001549600327,13
409,2910.61,0.0001549600327,13
410,2915.94,0.0001549600327,13
411,2921.32,0.0001524197043,13
412,2926.81,0.0001524197043,13
413,2932.17,0.0001524197043,13
414,2937.48,0.0001524197043,13
415,2942.8,0.0001524197043,13
416,2948.24,0.0001524197043,13
417,2953.53,0.0001496979239,13
418,2958.8,0.0001496979239,13
419,2964.11,0.0001496979239,13
420,2969.46,0.0001496979239,13
421,2974.71,0.0001496979239,13
422,2979.95,0.0001496979239,13
423,2985.23,0.0001467626705,13
424,2990.54,0.0001467626705,13
425,2995.8,0.0001467626705,13
426,3001.17,0.0001467626705,13
427,3006.44,0.0001467626705,13
428,3011.77,0.0001436400604,13
429,3017.05,0.0001436400604,13
430,3022.35,0.0001436400604,13
431,3027.65,0.0001436400604,13
432,3032.93,0.0001436400604,13
433,3038.25,0.0001436400604,13
434,3043.58,0.0001436400604,13
435,3048.89,0.0001401366443,13
436,3053.86,0.0001401366443,12
437,3058.82,0.0001401366443,12
438,3063.74,0.0001401366443,12
439,3068.63,0.0001401366443,12
440,3073.54,0.0001401366443,12
441,3078.44,0.0001362439598,12
442,3083.39,0.0001362439598,12
443,3088.35,0.0001362439598,12
444,3093.3,0.0001362439598,12
445,3098.22,0.0001362439598,12
446,3103.13,0.0001362439598,12
447,3108.03,0.0001362439598,12
448,3112.91,0.0001362439598,12
449,3117.81,0.0001362439598,12
450,3122.69,0.0001362439598,12
451,3127.53,0.0001311978872,12
452,3132.34,0.0001311978872,12
453,3137.19,0.0001311978872,12
454,3142.07,0.0001311978872,12
455,3146.94,0.0001311978872,12
456,3151.85,0.0001311978872,12
457,3156.78,0.0001311978872,12
458,3161.71,0.0001311978872,12
459,3166.6,0.0001311978872,12
460,3171.51,0.0001311978872,12
461,3176.4,0.0001311978872,12
462,3181.42,0.0001311978872,12
463,3186.41,0.0001311978872,12
464,3191.31,0.0001311978872,12
465,3196.19,0.0001311978872,12
466,3201.09,0.0001311978872,12
467,3206,0.0001311978872,12
468,3210.86,0.0001311978872,12
469,3215.73,0.0001311978872,12
470,3220.63,0.0001311978872,12
471,3225.53,0.0001311978872,12
472,3230.45,0.0001311978872,12
473,3235.31,0.0001311978872,12
474,3240.16,0.0001311978872,12
475,3245.02,0.0001311978872,12
476,3249.88,0.0001311978872,12
477,3254.76,0.0001311978872,12
478,3259.64,0.0001246882793,12
479,3264.59,0.0001246882793,12
480,3269.42,0.0001243765586,12
481,3274.25,0.0001240656172,12
482,3279.09,0.0001237554532,12
483,3283.97,0.0001234460645,12
484,3288.82,0.0001231374494,12
485,3293.71,0.0001228296057,12
486,3298.61,0.0001225225317,12
487,3303.55,0.0001222162254,12
488,3308.48,0.0001219106848,12
489,3313.39,0.0001216059081,12
490,3318.29,0.0001213018934,12
491,3323.23,0.0001209986386,12
492,3328.14,0.000120696142,12
493,3332.98,0.0001203944017,12
494,3337.81,0.0001200934157,12
495,3342.26,0.0001197931821,11
496,3346.74,0.0001194936992,11
497,3351.22,0.0001191949649,11
498,3355.74,0.0001188969775,11
499,3360.22,0.0001185997351,11
500,3364.72,0.0001183032357,11
501,3369.31,0.0001180074776,11
502,3373.91,0.0001177124589,11
503,3378.42,0.0001177124589,11
504,3382.92,0.0001174174403,11
505,3387.42,0.0001168303531,11
506,3391.93,0.0001165382772,11
507,3396.41,0.0001162469315,11
508,3400.88,0.0001159563141,11
509,3405.33,0.0001156664234,11
510,3409.76,0.0001153772573,11
511,3414.19,0.0001150888142,11
512,3418.63,0.0001148010921,11
513,3423.19,0.0001145140894,11
514,3427.69,0.0001142278042,11
515,3432.2,0.0001139422347,11
516,3436.68,0.0001136573791,11
517,3441.22,0.0001133732356,11
518,3445.77,0.0001130898025,11
519,3450.26,0.000112807078,11
520,3454.75,0.0001125250603,11
521,3459.29,0.0001122437477,11
522,3463.84,0.0001119631383,11
523,3468.31,0.0001116832305,11
524,3472.74,0.0001114040224,11
525,3477.2,0.0001111255123,11
526,3481.68,0.0001108476986,11
527,3486.2,0.0001108476986,11
528,3490.74,0.0001105698848,11
529,3495.23,0.0001102927673,11
530,3499.73,0.0001100163443,11
531,3504.21,0.0001097406141,11
532,3508.7,0.000109465575,11
533,3513.17,0.0001091912252,11
534,3517.67,0.0001089175629,11
535,3522.28,0.0001089175629,11
536,3526.75,0.0001086439007,11
537,3531.23,0.0001083709261,11
538,3535.68,0.0001080986373,11
539,3540.15,0.0001078270327,11
540,3544.65,0.0001075561105,11
541,3549.1,0.0001075561105,11
542,3553.54,0.0001072851883,11
543,3557.98,0.0001070149486,11
544,3562.57,0.0001067453895,11
545,3567.13,0.0001064765094,11
546,3571.61,0.0001064765094,11
547,3576.06,0.0001062076294,11
548,3580.67,0.0001059394283,11
549,3585.37,0.0001059394283,11
550,3589.93,0.0001056712272,11
551,3594.5,0.0001054037051,11
552,3599.03,0.0001051368603,11
553,3603.56,0.000104870691,11
554,3608.01,0.000104870691,11
555,3612.45,0.0001046045217,11
556,3616.48,0.000104339028,10
557,3620.52,0.0001040742082,10
558,3624.55,0.0001038100604,10
559,3628.6,0.0001035465831,10
560,3632.63,0.0001032837745,10
561,3636.66,0.0001032837745,10
562,3640.74,0.0001030209659,10
563,3644.92,0.0001027588261,10
564,3649.04,0.0001024973532,10
565,3653.1,0.0001024973532,10
566,3657.18,0.0001022358804,10
567,3661.37,0.0001019750746,10
568,3665.56,0.0001019750746,10
569,3669.63,0.0001017142688,10
570,3673.65,0.00010145413,10
571,3677.69,0.0001011946565,10
572,3681.76,0.0001011946565,10
573,3685.84,0.000100935183,10
574,3689.87,0.0001006763749,10
575,3693.91,0.0001004182303,10
576,3697.92,0.0001001607477,10
577,3701.97,0.0001001607477,10
578,3706.04,9.990326502e-05,10
579,3710.12,9.964644429e-05,10
580,3714.19,9.964644429e-05,10
581,3718.32,9.938962355e-05,10
582,3722.4,9.938962355e-05,10
583,3726.47,9.913280282e-05,10
584,3730.52,9.913280282e-05,10
585,3734.57,9.887598209e-05,10
586,3738.61,9.887598209e-05,10
587,3742.68,9.861916135e-05,10
588,3746.76,9.836300769e-05,10
589,3750.89,9.836300769e-05,10
590,3755.02,9.810685402e-05,10
591,3759.14,9.810685402e-05,10
592,3763.22,9.785070036e-05,10
593,3767.33,9.75952155e-05,10
594,3771.39,9.75952155e-05,10
595,3775.46,9.733973064e-05,10
596,3779.48,9.708491459e-05,10
597,3783.53,9.708491459e-05,10
598,3787.6,9.683009854e-05,10
599,3791.65,9.65759513e-05,10
600,3795.73,9.65759513e-05,10
601,3799.8,9.632180406e-05,10
602,3803.89,9.632180406e-05,10
603,3807.98,9.606765682e-05,10
604,3812.06,9.581418016e-05,10
605,3816.27,9.581418016e-05,10
606,3820.44,9.556070349e-05,10
607,3824.64,9.556070349e-05,10
608,3828.77,9.530722682e-05,10
609,3832.87,9.530722682e-05,10
610,3836.96,9.505375016e-05,10
611,3841.03,9.505375016e-05,10
612,3845.09,9.480027349e-05,10
613,3849.18,9.454747276e-05,10
614,3853.22,9.454747276e-05,10
615,3857.26,9.429467203e-05,10
616,3861.28,9.404254724e-05,10
617,3865.32,9.404254724e-05,10
618,3869.37,9.379042245e-05,10
619,3873.4,9.379042245e-05,10
620,3877.42,9.353829766e-05,10
621,3881.44,9.328685062e-05,10
622,3885.07,9.328685062e-05,9
623,3888.75,9.303540358e-05,9
624,3892.48,9.303540358e-05,9
625,3896.18,9.278395655e-05,9
626,3899.87,9.278395655e-05,9
627,3903.6,9.253250951e-05,9
628,3907.4,9.22817439e-05,9
629,3911.13,9.22817439e-05,9
630,3914.83,9.203097829e-05,9
631,3918.58,9.178089411e-05,9
632,3922.36,9.178089411e-05,9
633,3926.16,9.153080993e-05,9
634,3929.87,9.128140718e-05,9
635,3933.49,9.128140718e-05,9
636,3937.12,9.103200443e-05,9
637,3940.77,9.07832831e-05,9
638,3944.39,9.07832831e-05,9
639,3948,9.053456178e-05,9
640,3951.62,9.053456178e-05,9
641,3955.25,9.028584046e-05,9
642,3958.89,9.028584046e-05,9
643,3962.52,9.003711913e-05,9
644,3966.16,9.003711913e-05,9
645,3969.8,8.978839781e-05,9
646,3973.45,8.978839781e-05,9
647,3977.08,8.953967649e-05,9
648,3980.71,8.929164414e-05,9
649,3984.34,8.929164414e-05,9
650,3988.06,8.90436118e-05,9
651,3991.8,8.879626843e-05,9
652,3995.5,8.879626843e-05,9
653,3999.14,8.854892506e-05,9
654,4002.85,8.854892506e-05,9
655,4006.58,8.83015817e-05,9
656,4010.41,8.83015817e-05,9
657,4014.1,8.805423833e-05,9
658,4017.75,8.805423833e-05,9
659,4021.38,8.780689497e-05,9
660,4025,8.780689497e-05,9
661,4028.66,8.75595516e-05,9
662,4032.32,8.75595516e-05,9
663,4035.96,8.75595516e-05,9
664,4039.59,8.731150754e-05,9
665,4043.22,8.731150754e-05,9
666,4046.85,8.731150754e-05,9
667,4050.49,8.706275681e-05,9
668,4054.12,8.706275681e-05,9
669,4057.74,8.681400608e-05,9
670,4061.36,8.681400608e-05,9
671,4065.01,8.656525534e-05,9
672,4068.68,8.656525534e-05,9
673,4072.31,8.631650461e-05,9
674,4075.95,8.631650461e-05,9
675,4079.58,8.606775388e-05,9
676,4083.21,8.606775388e-05,9
677,4086.93,8.581900314e-05,9
678,4090.61,8.581900314e-05,9
679,4094.23,8.581900314e-05,9
680,4097.86,8.55695293e-05,9
681,4101.48,8.532078066e-05,9
682,4105.13,8.532078066e-05,9
683,4108.76,8.507203203e-05,9
684,4112.39,8.507203203e-05,9
685,4115.99,8.48232834e-05,9
686,4119.61,8.48232834e-05,9
687,4123.24,8.457453477e-05,9
688,4126.89,8.432651561e-05,9
689,4130.58,8.432651561e-05,9
690,4134.26,8.407849644e-05,9
691,4137.58,8.407849644e-05,8
692,4140.85,8.383047728e-05,8
693,4144.16,8.383047728e-05,8
694,4147.46,8.383047728e-05,8
695,4150.84,8.358172215e-05,8
696,4154.15,8.358172215e-05,8
697,4157.45,8.358172215e-05,8
698,4160.71,8.333222447e-05,8
699,4163.99,8.333222447e-05,8
700,4167.26,8.333222447e-05,8
701,4170.54,8.333222447e-05,8
702,4173.8,8.30812238e-05,8
703,4177.03,8.30812238e-05,8
704,4180.28,8.30812238e-05,8
705,4183.5,8.30812238e-05,8
706,4186.75,8.282869728e-05,8
707,4190.01,8.282869728e-05,8
708,4193.26,8.282869728e-05,8
709,4196.51,8.257539851e-05,8
710,4199.77,8.257539851e-05,8
711,4203.02,8.257539851e-05,8
712,4206.29,8.232132036e-05,8
713,4209.53,8.232132036e-05,8
714,4212.82,8.232132036e-05,8
715,4216.03,8.20664556e-05,8
716,4219.29,8.20664556e-05,8
717,4222.66,8.20664556e-05,8
718,4225.98,8.181079686e-05,8
719,4229.36,8.181079686e-05,8
720,4232.69,8.181079686e-05,8
721,4236.05,8.181079686e-05,8
722,4239.39,8.181079686e-05,8
723,4242.68,8.155271863e-05,8
724,4245.98,8.155271863e-05,8
725,4249.25,8.155271863e-05,8
726,4252.5,8.129382111e-05,8
727,4255.74,8.129382111e-05,8
728,4258.99,8.103492359e-05,8
729,4262.22,8.103492359e-05,8
730,4265.46,8.103492359e-05,8
731,4268.72,8.077519627e-05,8
732,4271.96,8.077519627e-05,8
733,4275.2,8.077519627e-05,8
734,4278.45,8.051463112e-05,8
735,4281.73,8.051463112e-05,8
736,4284.99,8.051463112e-05,8
737,4288.33,8.051463112e-05,8
738,4291.75,8.025236848e-05,8
739,4295.08,8.025236848e-05,8
740,4298.4,8.025236848e-05,8
741,4301.7,8.025236848e-05,8
742,4304.99,8.025236848e-05,8
743,4308.35,7.998750918e-05,8
744,4311.69,7.998750918e-05,8
745,4314.93,7.998750918e-05,8
746,4318.19,7.998750918e-05,8
747,4321.42,7.972088415e-05,8
748,4324.72,7.972088415e-05,8
749,4328.06,7.945425912e-05,8
750,4331.34,7.945425912e-05,8
751,4334.62,7.945425912e-05,8
752,4337.87,7.918673636e-05,8
753,4341.12,7.918673636e-05,8
754,4344.38,7.89192136e-05,8
755,4347.63,7.89192136e-05,8
756,4350.88,7.865169085e-05,8
757,4354.12,7.865169085e-05,8
758,4357.38,7.865169085e-05,8
759,4360.6,7.838325504e-05,8
760,4363.82,7.838325504e-05,8
761,4367.04,7.811481924e-05,8
762,4370.26,7.811481924e-05,8
763,4373.48,7.811481924e-05,8
764,4376.75,7.784545779e-05,8
765,4380.05,7.784545779e-05,8
766,4383.35,7.757609634e-05,8
767,4386.2,7.757609634e-05,7
768,4389.05,7.757609634e-05,7
769,4391.97,7.730579636e-05,7
770,4394.83,7.730579636e-05,7
771,4397.77,7.730579636e-05,7
772,4400.72,7.703454795e-05,7
773,4403.6,7.703454795e-05,7
774,4406.53,7.703454795e-05,7
775,4409.42,7.703454795e-05,7
776,4412.34,7.676137579e-05,7
777,4415.17,7.676137579e-05,7
778,4418.03,7.676137579e-05,7
779,4420.87,7.676137579e-05,7
780,4423.69,7.676137579e-05,7
781,4426.54,7.648525574e-05,7
782,4429.36,7.648525574e-05,7
783,4432.19,7.648525574e-05,7
784,4435.01,7.648525574e-05,7
785,4437.82,7.648525574e-05,7
786,4440.7,7.620611247e-05,7
787,4443.53,7.620611247e-05,7
788,4446.38,7.620611247e-05,7
789,4449.21,7.620611247e-05,7
790,4452.07,7.59249091e-05,7
791,4454.92,7.59249091e-05,7
792,4457.81,7.59249091e-05,7
793,4460.71,7.59249091e-05,7
794,4463.62,7.56416072e-05,7
795,4466.51,7.56416072e-05,7
796,4469.45,7.56416072e-05,7
797,4472.38,7.56416072e-05,7
798,4475.31,7.56416072e-05,7
799,4478.24,7.535508596e-05,7
800,4481.18,7.535508596e-05,7
801,4484.19,7.535508596e-05,7
802,4487.05,7.535508596e-05,7
803,4489.91,7.535508596e-05,7
804,4492.78,7.506525871e-05,7
805,4495.66,7.506525871e-05,7
806,4498.53,7.506525871e-05,7
807,4501.38,7.506525871e-05,7
808,4504.24,7.506525871e-05,7
809,4507.08,7.477203504e-05,7
810,4509.91,7.477203504e-05,7
811,4512.75,7.477203504e-05,7
812,4515.6,7.477203504e-05,7
813,4518.45,7.44764934e-05,7
814,4521.28,7.44764934e-05,7
815,4524.12,7.44764934e-05,7
816,4526.96,7.44764934e-05,7
817,4529.79,7.44764934e-05,7
818,4532.61,7.417739102e-05,7
819,4535.43,7.417739102e-05,7
820,4538.26,7.417739102e-05,7
821,4541.11,7.417739102e-05,7
822,4543.95,7.417739102e-05,7
823,4546.82,7.387462616e-05,7
824,4549.65,7.387462616e-05,7
825,4552.51,7.387462616e-05,7
826,4555.36,7.387462616e-05,7
827,4558.21,7.387462616e-05,7
828,4561.09,7.356809244e-05,7
829,4564.02,7.356809244e-05,7
830,4566.93,7.356809244e-05,7
831,4569.93,7.356809244e-05,7
832,4572.96,7.356809244e-05,7
833,4575.94,7.325767854e-05,7
834,4578.93,7.325767854e-05,7
835,4581.93,7.325767854e-05,7
836,4584.83,7.325767854e-05,7
837,4587.69,7.294461154e-05,7
838,4590.56,7.294461154e-05,7
839,4593,7.294461154e-05,6
840,4595.47,7.294461154e-05,6
841,4597.95,7.2628834e-05,6
842,4600.4,7.2628834e-05,6
843,4602.85,7.2628834e-05,6
844,4605.29,7.2628834e-05,6
845,4607.73,7.231028649e-05,6
846,4610.16,7.231028649e-05,6
847,4612.61,7.231028649e-05,6
848,4615.08,7.231028649e-05,6
849,4617.53,7.231028649e-05,6
850,4619.98,7.198747271e-05,6
851,4622.42,7.198747271e-05,6
852,4624.84,7.198747271e-05,6
853,4627.29,7.198747271e-05,6
854,4629.81,7.198747271e-05,6
855,4632.28,7.198747271e-05,6
856,4634.74,7.198747271e-05,6
857,4637.22,7.165725494e-05,6
858,4639.7,7.165725494e-05,6
859,4642.15,7.165725494e-05,6
860,4644.62,7.165725494e-05,6
861,4647.07,7.165725494e-05,6
862,4649.51,7.165725494e-05,6
863,4651.96,7.165725494e-05,6
864,4654.41,7.165725494e-05,6
865,4656.85,7.165725494e-05,6
866,4659.28,7.165725494e-05,6
867,4661.71,7.131439726e-05,6
868,4664.18,7.131439726e-05,6
869,4666.71,7.131439726e-05,6
870,4669.24,7.131439726e-05,6
871,4671.71,7.131439726e-05,6
872,4674.15,7.131439726e-05,6
873,4676.59,7.131439726e-05,6
874,4679.02,7.131439726e-05,6
875,4681.44,7.096135569e-05,6
876,4683.88,7.096135569e-05,6
877,4686.32,7.096135569e-05,6
878,4688.74,7.096135569e-05,6
879,4691.17,7.096135569e-05,6
880,4693.6,7.060296501e-05,6
881,4696.02,7.060296501e-05,6
882,4698.45,7.060296501e-05,6
883,4700.88,7.060296501e-05,6
884,4703.31,7.060296501e-05,6
885,4705.73,7.060296501e-05,6
886,4708.17,7.060296501e-05,6
887,4710.62,7.060296501e-05,6
888,4713.04,7.060296501e-05,6
889,4715.47,7.060296501e-05,6
890,4717.9,7.060296501e-05,6
891,4720.35,7.060296501e-05,6
892,4722.79,7.060296501e-05,6
893,4725.22,7.060296501e-05,6
894,4727.68,7.060296501e-05,6
895,4730.16,7.060296501e-05,6
896,4732.64,7.060296501e-05,6
897,4735.14,7.021503663e-05,6
898,4737.21,7.021503663e-05,5
899,4739.31,7.021503663e-05,5
900,4741.43,7.021503663e-05,5
901,4743.61,7.021503663e-05,5
902,4745.69,7.021503663e-05,5
903,4747.76,7.021503663e-05,5
904,4749.83,7.021503663e-05,5
905,4751.89,7.021503663e-05,5
906,4753.95,6.981150193e-05,5
907,4756.02,6.981150193e-05,5
908,4758.07,6.981150193e-05,5
909,4760.13,6.981150193e-05,5
910,4762.22,6.981150193e-05,5
911,4764.31,6.981150193e-05,5
912,4766.4,6.981150193e-05,5
913,4768.49,6.939595728e-05,5
914,4770.58,6.939595728e-05,5
915,4772.63,6.939595728e-05,5
916,4774.68,6.939595728e-05,5
917,4776.73,6.939595728e-05,5
918,4778.79,6.939595728e-05,5
919,4780.84,6.939595728e-05,5
920,4782.9,6.939595728e-05,5
921,4784.94,6.939595728e-05,5
922,4786.99,6.896223255e-05,5
923,4789,6.896223255e-05,5
924,4791.04,6.896223255e-05,5
925,4793.06,6.896223255e-05,5
926,4795.07,6.896223255e-05,5
927,4797.09,6.896223255e-05,5
928,4799.14,6.896223255e-05,5
929,4801.17,6.896223255e-05,5
930,4803.2,6.896223255e-05,5
931,4805.23,6.896223255e-05,5
932,4807.25,6.896223255e-05,5
933,4809.28,6.896223255e-05,5
934,4811.32,6.849939877e-05,5
935,4813.35,6.849939877e-05,5
936,4815.38,6.849939877e-05,5
937,4817.41,6.849939877e-05,5
938,4819.44,6.849939877e-05,5
939,4821.49,6.849939877e-05,5
940,4823.53,6.849939877e-05,5
941,4825.56,6.849939877e-05,5
942,4827.59,6.849939877e-05,5
943,4829.63,6.849939877e-05,5
944,4831.69,6.801011735e-05,5
945,4833.74,6.801011735e-05,5
946,4835.78,6.801011735e-05,5
947,4837.84,6.801011735e-05,5
948,4839.48,6.801011735e-05,4
949,4841.12,6.801011735e-05,4
950,4842.75,6.801011735e-05,4
951,4844.4,6.801011735e-05,4
952,4846.04,6.801011735e-05,4
953,4847.75,6.749488919e-05,4
954,4849.42,6.749488919e-05,4
955,4851.11,6.749488919e-05,4
956,4852.84,6.749488919e-05,4
957,4854.52,6.749488919e-05,4
958,4856.23,6.749488919e-05,4
959,4857.95,6.749488919e-05,4
960,4859.65,6.749488919e-05,4
961,4861.31,6.749488919e-05,4
962,4862.96,6.749488919e-05,4
963,4864.6,6.749488919e-05,4
964,4866.25,6.749488919e-05,4
965,4867.89,6.749488919e-05,4
966,4869.55,6.749488919e-05,4
967,4871.23,6.749488919e-05,4
968,4872.9,6.69228986e-05,4
969,4874.58,6.69228986e-05,4
970,4876.24,6.69228986e-05,4
971,4877.9,6.69228986e-05,4
972,4879.54,6.69228986e-05,4
973,4881.2,6.69228986e-05,4
974,4882.84,6.69228986e-05,4
975,4884.5,6.69228986e-05,4
976,4886.17,6.69228986e-05,4
977,4887.85,6.69228986e-05,4
978,4889.51,6.69228986e-05,4
979,4891.17,6.69228986e-05,4
980,4892.81,6.69228986e-05,4
981,4894.46,6.69228986e-05,4
982,4896.11,6.69228986e-05,4
983,4897.75,6.69228986e-05,4
984,4899.39,6.69228986e-05,4
985,4901.03,6.69228986e-05,4
986,4902.66,6.69228986e-05,4
987,4904.3,6.69228986e-05,4
988,4905.93,6.69228986e-05,4
989,4907.57,6.69228986e-05,4
990,4909.2,6.69228986e-05,4
991,4910.84,6.69228986e-05,4
992,4912.49,6.69228986e-05,4
993,4914.13,6.69228986e-05,4
994,4915.77,6.69228986e-05,4
995,4917.4,6.69228986e-05,4
996,4919.03,6.69228986e-05,4
997,4920.66,6.617931084e-05,4
998,4922.29,6.617931084e-05,4
999,4923.51,6.617931084e-05,3
1000,4924.75,6.617931084e-05,3
1001,4926.36,6.617931084e-05,4
1002,4927.6,6.617931084e-05,3
1003,4928.82,6.617931084e-05,3
1004,4930.05,6.617931084e-05,3
1005,4931.28,6.617931084e-05,3
1006,4932.49,6.617931084e-05,3
1007,4933.73,6.617931084e-05,3
1008,4934.97,6.617931084e-05,3
1009,4936.2,6.617931084e-05,3
1010,4937.43,6.617931084e-05,3
1011,4938.67,6.617931084e-05,3
1012,4939.91,6.617931084e-05,3
1013,4941.18,6.617931084e-05,3
1014,4942.41,6.617931084e-05,3