# Probe 0 (6 0.005 0.305)
# Probe 1 (6.3 0.005 0.305)
# Probe 2 (6.8 0.005 0.305)
# Probe 3 (8.3 0.005 0.305)
#           Probe                 0                 1                 2                 3
#            Time
    1.1999904e-06            101325            101325            101325            101325
  2.639965056e-06            101325            101325            101325            101325
  4.367944597e-06            101325            101325            101325            101325
  6.441505713e-06            101325            101325            101325            101325
   8.92973777e-06            101325            101325            101325            101325
  1.191552707e-05            101325            101325            101325            101325
  1.549838863e-05            101325            101325            101325            101325
  1.979776087e-05            101325            101325            101325            101325
  2.495674128e-05            101325            101325            101325            101325
  3.114713435e-05            101325            101325            101325            101325
  3.857523794e-05            101325            101325            101325            101325
  4.748896225e-05            101325            101325            101325            101325
  5.818543142e-05            101325            101325            101325            101325
  7.102064463e-05            101325            101325            101325            101325
  8.642131685e-05            101325            101325            101325            101325
  0.0001049009832            101325            101325            101325            101325
  0.0001270765827            101325            101325            101325            101325
  0.0001536896689            101325            101325            101325            101325
  0.0001856219625            101325            101325            101325            101325
  0.0002239407148            101325            101325            101325            101325
  0.0002699019884            101325            101325            101325            101325
  0.0003250351347            101325            101325            101325            101325
  0.0003911802278            101325            101325            101325            101325
  0.0004705543394            101325            101325            101325            101325
  0.0005658032734            101325            101325            101325            101325
  0.0006799700095            101325            101325            101325            101325
  0.0008169700928            101325            101325            101325            101325
  0.0009814618316            101325            101325            101325            101325
   0.001179117227            101325            101325            101325            101325
   0.001416111804            101325            101325            101325            101325
   0.001666544217            101325            101325            101325            101325
   0.001916976631       101324.9999            101325            101325            101325
   0.002167409044       101324.9996            101325            101325            101325
   0.002417841458        101324.999       101324.9999            101325            101325
   0.002668273871       101324.9976       101324.9998            101325            101325
   0.002918706284        101324.995       101324.9995            101325            101325
   0.003169138698       101324.9905       101324.9989            101325            101325
   0.003419571111        101324.984       101324.9977            101325            101325
   0.003670003524       101324.9753       101324.9956       101324.9999            101325
   0.003920435938       101324.9652       101324.9922       101324.9998            101325
   0.004170868351       101324.9548       101324.9872       101324.9995            101325
   0.004421300765       101324.9457       101324.9804       101324.9989            101325
   0.004671733178       101324.9392       101324.9721        101324.998            101325
   0.004922165591       101324.9361        101324.963       101324.9965            101325
   0.005172598005       101324.9362       101324.9541       101324.9941            101325
   0.005423030418       101324.9387       101324.9465       101324.9906            101325
   0.005673462831       101324.9432       101324.9413       101324.9859            101325
   0.005923895245       101324.9501       101324.9392         101324.98            101325
   0.006174327658       101324.9617       101324.9405       101324.9731            101325
   0.006424760072       101324.9828       101324.9453       101324.9657            101325
   0.006675192485       101325.0211       101324.9541       101324.9585            101325
   0.006925624898       101325.0851       101324.9686       101324.9525            101325
   0.007176057312       101325.1872       101324.9925       101324.9486       101324.9999
   0.007426489725       101325.3476       101325.0318       101324.9477       101324.9998
   0.007676922139       101325.5965       101325.0948       101324.9509       101324.9997
   0.007927354552        101325.976       101325.1931       101324.9593       101324.9995
   0.008177786965       101326.5412       101325.3448       101324.9745       101324.9992
   0.008428219379        101327.358       101325.5756       101324.9994       101324.9988
   0.008678651792          101328.5       101325.9209       101325.0384       101324.9981
   0.008929084205       101330.0407       101326.4262       101325.0976        101324.997
   0.009179516619       101332.0441       101327.1461       101325.1864       101324.9956
   0.009429949032       101334.5518       101328.1407       101325.3186       101324.9938
   0.009680381446       101337.5697       101329.4703       101325.5143       101324.9914
   0.009930813859       101341.0569       101331.1882       101325.8002       101324.9885
    0.01018124627       101344.9176       101333.3317       101326.2099       101324.9852
    0.01043167869       101348.9849       101335.9146       101326.7827       101324.9815
     0.0106821111        101353.001        101338.913       101327.5619       101324.9779
    0.01093254351       101356.6444       101342.2535        101328.592       101324.9748
    0.01118297593       101359.5637       101345.7938       101329.9147       101324.9728
    0.01143340834       101361.3936       101349.3288       101331.5639       101324.9731
    0.01168384075       101361.7952       101352.5981       101333.5575       101324.9769
    0.01193427317       101360.5302       101355.3196       101335.8864       101324.9859
    0.01218470558       101357.5481        101357.181       101338.5055       101325.0023
    0.01243513799       101353.0415         101357.88       101341.3211       101325.0286
    0.01268557041        101347.447       101357.1951       101344.1945       101325.0676
    0.01293600282       101341.4014       101355.0453       101346.9518       101325.1232
    0.01318643523       101335.6524       101351.5298       101349.3837       101325.2015
    0.01343686765       101330.9015       101346.9431       101351.2523        101325.311
    0.01368730006       101327.6643       101341.7544       101352.3232        101325.463
    0.01393773247       101326.2129       101336.5512       101352.4025       101325.6717
    0.01418816489       101326.5836       101331.9576       101351.3751       101325.9538
     0.0144385973       101328.6594       101328.5363       101349.2391       101326.3285
    0.01468902971       101332.2753       101326.6945       101346.1272       101326.8161
    0.01493946213       101337.2669       101326.6283         101342.31       101327.4369
    0.01518989454       101343.4474         101328.34       101338.1788       101328.2101
    0.01544032695       101350.5596       101331.6876       101334.2094       101329.1496
    0.01569075937       101358.2313       101336.4242       101330.9031        101330.265
    0.01594119178       101365.9401       101342.2236       101328.7057       101331.5522
    0.01619162419       101373.0378       101348.6975       101327.9307       101332.9978
    0.01644205661       101378.6309        101355.419        101328.704       101334.5678
    0.01669248902       101381.8157       101361.8931       101330.9652       101336.2126
    0.01694292143       101381.9063       101367.4941        101334.504       101337.8632
    0.01719335385       101378.6438       101371.5593       101338.9865       101339.4295
    0.01744378626       101372.3749       101373.4288       101343.9738       101340.8075
    0.01769421867        101364.062       101372.5889       101348.9944       101341.8823
    0.01794465109       101355.0774       101368.9023       101353.5174       101342.5479
     0.0181950835       101346.8654        101362.753       101357.0345       101342.7153
    0.01844551591       101340.6307       101355.0246       101359.1048       101342.3344
    0.01869594833       101337.1842       101346.9416       101359.4161        101341.404
    0.01894638074       101336.9684       101339.8505       101357.8558       101339.9794
    0.01919681315       101340.1602       101334.9936       101354.5727       101338.1618
    0.01944724557       101346.7979       101333.3013       101349.9999       101336.1019
    0.01969767798       101356.7899       101335.2827       101344.8332       101334.0016
    0.01994811039       101369.7318       101340.9325       101339.9622       101332.0823
    0.02019854281       101384.6418       101349.7852       101336.3508       101330.5505
    0.02044897522       101399.8056       101361.0352       101334.8887       101329.5744
    0.02069940763       101412.8759        101373.658       101336.1912       101329.2417
    0.02094984005       101421.2476       101386.4704       101340.4178       101329.5674
    0.02120027246       101422.7208       101398.1291        101347.269       101330.4806
    0.02145070487       101415.9486       101407.1821       101356.0301       101331.8486
    0.02170113729       101401.3602       101411.9405       101365.6823        101333.493
     0.0219515697       101381.2581       101410.9894       101375.0903       101335.2137
    0.02220200211       101359.3732       101403.5673       101383.2091       101336.8198
    0.02245243453       101339.9813       101389.9311       101389.2354       101338.1574
    0.02270286694       101326.7598       101371.6883       101392.4345       101339.1322
    0.02295329935       101321.7706       101351.7395       101392.2592       101339.7255
    0.02320373177       101324.9906        101333.663       101388.3657       101340.0005
    0.02345416418       101334.5475       101320.7584       101380.7311       101340.0813
    0.02370459659       101347.4734       101315.1727       101369.8239       101340.1618
    0.02395502901       101360.6516       101317.4729       101356.7105       101340.4749
    0.02420546142       101371.5349        101326.612       101342.9923       101341.2162
    0.02445589384       101378.6676       101340.1108        101330.568       101342.4833
    0.02470632625       101381.8321        101354.769       101321.3533       101344.2763
    0.02495675866       101381.7903       101367.6081       101316.9172       101346.4992
    0.02520719108       101379.7725       101376.5991        101317.941       101348.9675
    0.02545762349       101377.0104       101381.0705       101324.0676       101351.4248
     0.0257080559       101374.4898       101381.5055       101333.9779       101353.5694
    0.02595848832       101372.9091       101379.1291       101345.7011       101355.0667
    0.02620892073       101372.7078       101375.4398       101357.1272       101355.6856
    0.02645935314       101374.1008       101371.7944       101366.4785       101355.3409
    0.02670978556       101377.1015       101369.1468       101372.6834       101354.0983
    0.02696021797       101381.5173       101367.9741       101375.4752       101352.0975
    0.02721065038       101386.9564       101368.3588       101375.2821       101349.5154
     0.0274610828       101392.8283       101370.1438       101373.0183       101346.5638
    0.02771151521       101398.3435       101373.1127        101369.726       101343.4787
    0.02796194762       101402.6238       101376.9734       101366.3298       101340.4996
    0.02821238004       101404.8909       101381.3277       101363.5167       101337.8745
    0.02846281245       101404.6808       101385.6316       101361.7191       101335.7933
    0.02871324486       101401.9996       101389.2466       101361.1363       101334.3397
    0.02896367728       101397.3414       101391.5956       101361.8188       101333.5426
    0.02921410969       101391.5433       101392.3013       101363.6917       101333.4451
     0.0294645421       101385.5291       101391.2411       101366.5442       101334.1009
    0.02971497452       101380.0863       101388.5626        101370.003       101335.5562
    0.02996540693       101375.7015       101384.6571       101373.5435       101337.8069
    0.03021583934        101372.508        101380.079       101376.5786       101340.8006
    0.03046627176       101370.3702       101375.4201       101378.5814       101344.3065
    0.03071670417       101369.0421       101371.1778       101379.1646       101347.9715
    0.03096713658       101368.3123       101367.6731       101378.1516        101351.376
      0.031217569       101368.0867       101365.0411       101375.6244       101354.0931
    0.03146800141       101368.4021       101363.2845       101371.9168       101355.7937
    0.03171843382       101369.3806       101362.3473       101367.5449       101356.2848
    0.03196886624       101371.1499       101362.1944       101363.0987       101355.5385
    0.03221929865       101373.7588       101362.8161       101359.1306       101353.7082
    0.03246973106       101377.1172       101364.2111       101356.0669       101351.1278
    0.03272016348       101380.9789       101366.3458       101354.2001       101348.2533
    0.03297059589       101384.9704       101369.1081       101353.6295       101345.6312
     0.0332210283       101388.6518       101372.2785       101354.2754       101343.7452
    0.03347146072       101391.5823       101375.5385       101355.9196       101342.9365
    0.03372189313       101393.4524       101378.5143       101358.2537       101343.3642
    0.03397232554       101394.0748       101380.8414       101360.9237       101344.9864
    0.03422275796       101393.4312       101382.2235       101363.5721       101347.6024
    0.03447319037       101391.7019       101382.5617       101365.8724       101350.8022
    0.03472362278       101389.2654       101381.8731       101367.5766       101354.0665
     0.0349740552       101386.6662       101380.2754       101368.5257       101356.8574
    0.03522448761       101384.5409       101378.0368       101368.6573       101358.7136
    0.03547492002       101383.4881       101375.6233       101367.9965        101359.349
    0.03572535244       101383.9137       101373.6397       101366.6723       101358.7023
    0.03597578485       101385.9475       101372.6781       101364.9433       101356.9411
    0.03622621726       101389.4266       101373.1587       101363.1879       101354.4172
    0.03647664968       101393.9215       101375.2318       101361.8444       101351.5577
    0.03672708209       101398.8324        101378.931       101361.3144       101348.7783
     0.0369775145       101403.5377       101383.9439       101361.8765        101346.421
    0.03722794692       101407.5004       101389.6872       101363.6727       101344.7041
    0.03747837933       101410.3267       101395.4712        101366.726       101343.6935
    0.03772881174       101411.8067       101400.6295       101370.8536       101343.3056
    0.03797924416       101411.9275       101404.6074       101375.6955       101343.3482
    0.03822967657       101410.8526       101407.0242       101380.7728       101343.5826
    0.03848010898       101408.8746       101407.7134       101385.5545       101343.7961
     0.0387305414       101406.3393       101406.7264       101389.5409       101343.8585
    0.03898097381       101403.6169       101404.2874       101392.3483       101343.7497
    0.03923140622       101400.9749       101400.7779         101393.76       101343.5569
    0.03948183864       101398.5227       101396.6253       101393.7345       101343.4477
    0.03973227105       101396.2147       101392.2445       101392.4228       101343.6313
    0.03998270346       101393.9008       101387.9943       101390.0617       101344.2993
    0.04023313588       101391.4102       101384.1407       101386.9294       101345.5847
    0.04048356829       101388.6339       101380.8319       101383.3188       101347.4905
     0.0407340007       101385.5708       101378.0929       101379.5157        101349.957
    0.04098443312       101382.3273       101375.8448       101375.7791       101352.8447
    0.04123486553       101379.0877       101373.9509       101372.3265        101355.925
    0.04148529795        101376.087       101372.2757       101369.3214       101358.9151
    0.04173573036       101373.6033       101370.7357       101366.8653       101361.5432
    0.04198616277       101371.9868       101369.3244       101364.9927       101363.5978
    0.04223659519       101371.6127       101368.1186       101363.6692       101364.9554
     0.0424870276       101372.8052       101367.3198       101362.7957       101365.5723
    0.04273746001       101375.7676       101367.1369       101362.2263       101365.5109
    0.04298789243       101380.4969       101367.7905       101361.8056       101364.8826
    0.04323832484       101386.7218       101369.5188       101361.4243       101363.8467
    0.04348875725       101393.9146       101372.5122       101361.0261       101362.5596
    0.04373918967       101401.3895       101376.7973       101360.6545       101361.1462
    0.04398962208       101408.4411       101382.1457       101360.4671       101359.6972
    0.04424005449       101414.4551       101388.0723       101360.7081        101358.283
    0.04449048691       101418.9486       101393.9318         101361.64       101356.9466
    0.04474091932       101421.6094       101399.0894       101363.4589       101355.6877
    0.04499135173       101422.3059       101403.0945       101366.2207       101354.5135
    0.04524178415       101421.0646       101405.6832       101369.8037       101353.4133
    0.04549221656       101418.1296       101406.8038       101373.9188       101352.3602
    0.04574264897       101413.9981       101406.5826        101378.168       101351.3328
    0.04599308139       101409.3596       101405.2527       101382.1405       101350.3301
     0.0462435138       101404.9408       101403.0922       101385.5111       101349.3715
    0.04649394621       101401.3372       101400.3972       101388.1027       101348.4918
    0.04674437863       101398.9253       101397.4813       101389.8904       101347.7087
    0.04699481104       101397.8756       101394.6857       101390.9498       101347.0391
    0.04724524345        101398.275        101392.377       101391.3791       101346.4976
    0.04749567587       101400.2525       101390.9201       101391.2368       101346.0971
    0.04774610828       101404.0035       101390.6402       101390.5279       101345.8553
    0.04799654069       101409.6725       101391.7916       101389.2459       101345.8022
    0.04824697311       101417.1483       101394.5225       101387.4501       101345.9802
    0.04849740552       101425.8835       101398.8233       101385.3366        101346.441
    0.04874783793       101434.8321       101404.4844       101383.2605        101347.236
    0.04899827035       101442.5431       101411.0474       101381.6873        101348.404
    0.04924870276        101447.397       101417.8154        101381.083       101349.9439
    0.04949913517       101447.9455       101423.9151       101381.7843        101351.812
    0.04974956759       101443.2996       101428.3974       101383.9319       101353.9412
             0.05       101433.4821       101430.3667        101387.365       101356.2335
          0.05025       101419.6611       101429.1271       101391.6493       101358.5599
           0.0505       101403.9975       101424.3145       101396.2056       101360.7856
          0.05075       101389.2336       101416.1092       101400.3947       101362.7738
            0.051        101377.992       101405.1629       101403.5967        101364.408
          0.05125       101372.0501       101392.6242       101405.3061       101365.6027
           0.0515       101371.8394       101380.0879       101405.1187       101366.3109
          0.05175       101376.3742       101369.3866        101402.747       101366.5253
            0.052       101383.6595       101362.2233       101398.0869       101366.2779
          0.05225       101391.3978       101359.7462       101391.3006       101365.6476
           0.0525       101397.8264       101362.2077       101382.8929       101364.7546
          0.05275       101402.0986       101368.8204       101373.7398       101363.7534
            0.053       101404.3869       101377.8976       101365.0279       101362.8225
          0.05325       101405.5979       101387.3144       101358.1024       101362.1455
           0.0535        101406.849       101395.1203       101354.1876       101361.8835
          0.05375       101408.9514       101400.0854       101354.0428        101362.143
            0.054       101412.1236       101402.0054       101357.6804        101362.947
          0.05425       101416.0846       101401.6489       101364.2971       101364.2219
           0.0545       101420.2764        101400.383       101372.3934       101365.8078
          0.05475        101424.162       101399.6989       101380.1524       101367.4663
            0.055       101427.4653       101400.6584       101385.9583       101368.9048
          0.05525        101430.241       101403.6316       101388.8798       101369.8274
           0.0555       101432.8695       101408.3202       101388.9744       101369.9822
          0.05575       101435.6359       101414.0048        101387.229       101369.1881
            0.056       101438.5272       101419.8716       101385.1942        101367.368
          0.05625       101441.1609       101425.2925       101384.4424        101364.573
           0.0565       101442.9507       101429.8586       101386.0447       101360.9872
          0.05675       101443.3613       101433.1318       101390.2491       101356.9029
            0.057       101442.0893       101434.7159        101396.449       101352.7267
          0.05725       101439.0748       101434.3936       101403.4582       101348.9703
           0.0575       101434.3764        101432.167       101409.9192       101346.0963
          0.05775       101428.0371       101428.1969       101414.6498        101344.478
            0.058       101420.0836       101422.7029       101416.9509       101344.3063
          0.05825       101410.6645       101415.8832        101416.762       101345.5739
           0.0585       101400.2556       101407.8888       101414.5285       101348.0641
          0.05875       101389.7993       101398.8799       101410.9198       101351.3955
            0.059       101380.6356       101389.1648       101406.5336       101355.0812
          0.05925        101374.256        101379.368       101401.7032       101358.6059
           0.0595        101371.959       101370.5205       101396.4535       101361.5332
          0.05975        101374.543       101363.9728       101390.5946       101363.5983
             0.06       101382.0828       101361.1115       101383.9149       101364.8022
          0.06025       101394.0333       101362.9533         101376.41       101365.3747
           0.0605       101409.1192       101369.7721       101368.4729       101365.6954
          0.06075       101425.5724       101380.9211       101360.9692       101366.1907
            0.061       101441.4655       101394.9642       101355.1443       101367.2014
          0.06125       101455.0809        101410.019       101352.3332       101368.9143
           0.0615       101465.1943       101424.1745       101353.5532       101371.3267
          0.06175       101471.2222       101435.9286       101359.1329       101374.1798
            0.062       101473.2101       101444.4616       101368.5297       101377.0462
          0.06225       101471.7854       101449.6445       101380.4307       101379.3844
           0.0625       101467.8597       101451.9772        101393.076       101380.6952
          0.06275       101462.3976       101452.1169       101404.7299       101380.5938
            0.063       101456.2524       101450.6486       101414.1129       101378.8754
          0.06325        101450.043       101448.0097       101420.7574       101375.5625
           0.0635       101444.1118        101444.453       101424.8645       101370.8676
          0.06375       101438.5784       101440.0597       101427.0579       101365.1379
            0.064       101433.4449       101434.8438       101428.0553       101358.8971
          0.06425       101428.6933       101428.9049       101428.3376       101352.7308
           0.0645       101424.3453       101422.5504        101427.978       101347.2643
          0.06475        101420.495       101416.3011       101426.6961       101343.0656
            0.065       101417.3372       101410.7677       101424.0803       101340.6005
          0.06525       101415.1861       101406.4644       101419.8618       101340.1609
           0.0655       101414.4495       101403.6702       101414.1274       101341.8252
          0.06575       101415.5213       101402.4035       101407.3795       101345.4781
            0.066       101418.6141       101402.5113       101400.4291       101350.7931
          0.06625       101423.5192       101403.8008       101394.1712       101357.2312
           0.0665       101429.5541       101406.1298       101389.3371        101364.183
          0.06675       101435.7585       101409.4072       101386.3202       101371.0336
            0.067       101441.2487       101413.5149       101385.1357       101377.2357
          0.06725       101445.5497       101418.2248       101385.5106       101382.3827
           0.0675       101448.7226       101423.1856       101387.0495       101386.2541
          0.06775       101451.2235       101427.9919       101389.3916       101388.8077
            0.068       101453.5693       101432.2958       101392.2967       101390.1211
          0.06825       101455.9802       101435.8953       101395.6432       101390.3217
           0.0685       101458.1916       101438.7423       101399.3582       101389.5318
          0.06875       101459.5973       101440.8521       101403.3258       101387.8665
            0.069       101459.6385       101442.1742       101407.3305       101385.4171
          0.06925       101458.1918       101442.5424       101411.0649       101382.2732
           0.0695       101455.7287       101441.7694       101414.1953       101378.5431
          0.06975       101453.1717       101439.8451       101416.4482       101374.4332
             0.07        101451.537       101437.1091       101417.6795       101370.2184
          0.07025       101451.5547       101434.2744       101417.9063       101366.2348
           0.0705       101453.4489       101432.2539       101417.3007       101362.8395
          0.07075       101456.9743        101431.856       101416.1611        101360.343
    0.07099788136       101461.6144       101433.4648       101414.8853       101358.9622
    0.07124366202       101466.8319       101436.8981       101413.8975       101358.7381
     0.0714873598       101472.2142       101441.5366       101413.5938       101359.5844
    0.07173105758       101477.4475       101446.6117       101414.2807        101361.342
    0.07197267247       101481.9604       101451.3253       101416.0798       101363.7651
    0.07221222228       101484.8905       101455.1749       101418.8625       101366.5872
    0.07245177209       101485.2206       101457.9857       101422.2835       101369.5808
    0.07268925681       101482.1172       101459.7249       101425.7631       101372.4998
    0.07292469425       101475.5752       101460.4166       101428.7079       101375.1644
     0.0731601317       101466.6682       101459.9853       101430.6633        101377.474
    0.07339352185       101457.6931       101458.3004       101431.3872       101379.3284
    0.07362691201       101451.2694       101455.3285       101430.9686       101380.6963
    0.07386030217       101449.5856       101451.3728       101429.7491       101381.5552
    0.07409162693       101453.3003       101447.2455       101428.2405       101381.9136
    0.07432090457       101461.2092       101444.0706        101426.933       101381.8255
    0.07455018221       101471.0057       101442.9599       101426.1613       101381.3709
    0.07477741272       101479.8467       101444.6219       101426.0664        101380.666
     0.0750026144       101485.7115       101448.9617       101426.5817       101379.8452
    0.07522580534        101487.915       101455.1467        101427.532       101379.0552
    0.07544899628       101487.0172       101461.9169       101428.7463       101378.4301
     0.0756701765       101484.2789       101467.6689       101430.1014       101378.0866
    0.07589135671       101480.9458       101471.1472       101431.5827       101378.0914
    0.07611052619       101477.7728       101471.6296       101433.2013       101378.4645