# Probe 0 (2.4 2.295 1.5)
#           Probe                 0
#            Time
    1.1999904e-06            293.15
  2.639965056e-06            293.15
  4.367944597e-06            293.15
  6.441505713e-06            293.15
   8.92973777e-06            293.15
  1.191552707e-05            293.15
  1.549838863e-05            293.15
  1.979776087e-05            293.15
  2.495674128e-05            293.15
  3.114713435e-05            293.15
  3.857523794e-05            293.15
  4.748896225e-05            293.15
  5.818543142e-05            293.15
  7.102064463e-05            293.15
  8.642131685e-05            293.15
  0.0001049009832            293.15
  0.0001270765827            293.15
  0.0001536896689            293.15
  0.0001856219625            293.15
  0.0002239407148            293.15
  0.0002699019884            293.15
  0.0003250351347            293.15
  0.0003911802278            293.15
  0.0004705543394            293.15
  0.0005658032734            293.15
  0.0006799700095            293.15
  0.0008169700928            293.15
  0.0009814618316            293.15
   0.001179117227            293.15
   0.001416111804       293.1500002
   0.001666544217       293.1500009
   0.001916976631       293.1500039
   0.002167409044       293.1500131
   0.002417841458        293.150038
   0.002668273871       293.1500977
   0.002918706284        293.150227
   0.003169138698       293.1504846
   0.003419571111       293.1509604
   0.003670003524       293.1517809
   0.003920435938       293.1531106
   0.004170868351       293.1551426
   0.004421300765       293.1580797
   0.004671733178       293.1620993
   0.004922165591       293.1673084
   0.005172598005       293.1736863
   0.005423030418       293.1810288
   0.005673462831       293.1889068
   0.005923895245       293.1966556
   0.006174327658       293.2034168
   0.006424760072       293.2082437
   0.006675192485       293.2102685
   0.006925624898       293.2089042
   0.007176057312       293.2040315
   0.007426489725       293.1961594
   0.007676922139       293.1863284
   0.007927354552       293.1760251
   0.008177786965       293.1669197
   0.008428219379       293.1605492
   0.008678651792       293.1580525
   0.008929084205       293.1599812
   0.009179516619       293.1663577
   0.009429949032       293.1766571
   0.009680381446       293.1898388
   0.009930813859        293.204496
    0.01018124627       293.2190157
    0.01043167869        293.231688
     0.0106821111       293.2408231
    0.01093254351        293.244958
    0.01118297593       293.2431562
    0.01143340834        293.235317
    0.01168384075        293.222324
    0.01193427317       293.2059107
    0.01218470558       293.1884087
    0.01243513799       293.1724047
    0.01268557041       293.1603799
    0.01293600282       293.1543028
    0.01318643523       293.1553292
    0.01343686765       293.1635062
    0.01368730006       293.1777285
    0.01393773247       293.1959378
    0.01418816489       293.2156346
     0.0144385973       293.2343772
    0.01468902971       293.2502343
    0.01493946213       293.2620702
    0.01518989454       293.2696554
    0.01544032695       293.2735753
    0.01569075937       293.2748901
    0.01594119178       293.2747909
    0.01619162419       293.2742056
    0.01644205661        293.273573
    0.01669248902       293.2728377
    0.01694292143       293.2715765
    0.01719335385       293.2691851
    0.01744378626       293.2651286
    0.01769421867         293.25912
    0.01794465109       293.2513143
     0.0181950835       293.2423745
    0.01844551591       293.2333908
    0.01869594833       293.2256737
    0.01894638074       293.2204755
    0.01919681315       293.2187171
    0.01944724557       293.2207858
    0.01969767798       293.2264163
    0.01994811039       293.2347528
    0.02019854281       293.2445094
    0.02044897522       293.2542645
    0.02069940763       293.2628844
    0.02094984005       293.2697049
    0.02120027246       293.2746195
    0.02145070487       293.2780105
    0.02170113729       293.2805658
     0.0219515697         293.28303
    0.02220200211       293.2859555
    0.02245243453       293.2893598
    0.02270286694       293.2927293
    0.02295329935       293.2952181
    0.02320373177       293.2959052
    0.02345416418       293.2941096
    0.02370459659       293.2896268
    0.02395502901       293.2828261
    0.02420546142       293.2746024
    0.02445589384       293.2662565
    0.02470632625       293.2592819
    0.02495675866       293.2550584
    0.02520719108       293.2545057
    0.02545762349       293.2579717
     0.0257080559       293.2651969
    0.02595848832       293.2754453
    0.02620892073        293.287657
    0.02645935314       293.3005796
    0.02670978556       293.3129223
    0.02696021797       293.3235399
    0.02721065038       293.3315978
     0.0274610828       293.3366087
    0.02771151521        293.338405
    0.02796194762       293.3370175
    0.02821238004       293.3326353
    0.02846281245       293.3254934
    0.02871324486       293.3158815
    0.02896367728       293.3042096
    0.02921410969       293.2910637
     0.0294645421       293.2772413
    0.02971497452       293.2637161
    0.02996540693       293.2515929
    0.03021583934       293.2419997
    0.03046627176        293.235955
    0.03071670417       293.2342946
    0.03096713658         293.23761
      0.031217569       293.2461242
    0.03146800141       293.2596596
    0.03171843382       293.2775337
    0.03196886624       293.2985511
    0.03221929865        293.321124
    0.03246973106       293.3434641
    0.03272016348       293.3637751
    0.03297059589       293.3804103
     0.0332210283       293.3920219
    0.03347146072       293.3977402
    0.03372189313       293.3973373
    0.03397232554       293.3912919
    0.03422275796       293.3807745
    0.03447319037       293.3674499
    0.03472362278       293.3531005
     0.0349740552       293.3392751
    0.03522448761       293.3271314
    0.03547492002          293.3174
    0.03572535244       293.3103514
    0.03597578485       293.3057716
    0.03622621726       293.3030908
    0.03647664968       293.3015022
    0.03672708209       293.3002881
     0.0369775145       293.2990318
    0.03722794692       293.2976979
    0.03747837933       293.2965964
    0.03772881174       293.2962586
    0.03797924416       293.2972712
    0.03822967657       293.3001053
    0.03848010898       293.3050187
     0.0387305414        293.312005
    0.03898097381       293.3207726
    0.03923140622       293.3307732
    0.03948183864        293.341306
    0.03973227105       293.3516606
    0.03998270346       293.3612075
    0.04023313588        293.369444
    0.04048356829       293.3759682
     0.0407340007         293.38043
    0.04098443312       293.3825599
    0.04123486553       293.3821745
    0.04148529795       293.3792094
    0.04173573036       293.3737802
    0.04198616277       293.3662267
    0.04223659519       293.3571324
     0.0424870276       293.3473352
    0.04273746001         293.33786
    0.04298789243       293.3297967
    0.04323832484       293.3241806
    0.04348875725       293.3218653
    0.04373918967       293.3234144
    0.04398962208       293.3289895
    0.04424005449       293.3382705
    0.04449048691       293.3504646
    0.04474091932       293.3643841
    0.04499135173       293.3785905
    0.04524178415       293.3915998
    0.04549221656       293.4020688
    0.04574264897       293.4089773
    0.04599308139       293.4117723
     0.0462435138        293.410434
    0.04649394621       293.4054086
    0.04674437863       293.3975059
    0.04699481104       293.3877418
    0.04724524345       293.3771741
    0.04749567587       293.3667359
    0.04774610828       293.3572538
    0.04799654069       293.3494169
    0.04824697311       293.3437021
    0.04849740552       293.3403592
    0.04874783793       293.3394735
    0.04899827035       293.3410006
    0.04924870276       293.3447607
    0.04949913517       293.3505491
    0.04974956759       293.3581476
             0.05       293.3672736
          0.05025       293.3775909
           0.0505       293.3887968
          0.05075       293.4005219
            0.051       293.4122806
          0.05125       293.4234708
           0.0515       293.4334128
          0.05175       293.4413958
            0.052       293.4467447
          0.05225       293.4489057
           0.0525       293.4475302
          0.05275        293.442545
            0.053       293.4341758
          0.05325       293.4229665
           0.0535       293.4097748
          0.05375       293.3956908
            0.054       293.3819193
          0.05425       293.3696499
           0.0545       293.3599452
          0.05475       293.3536628
            0.055       293.3514095
          0.05525       293.3534724
           0.0555       293.3597869
          0.05575       293.3699743
            0.056       293.3833805
          0.05625       293.3990999
           0.0565       293.4160166
          0.05675       293.4328927
            0.057       293.4485118
          0.05725       293.4618427
           0.0575       293.4721806
          0.05775       293.4791925
            0.058       293.4828737
          0.05825       293.4834661
           0.0585       293.4813794
          0.05875        293.477142
            0.059       293.4713319
          0.05925       293.4645226
           0.0595       293.4572599
          0.05975       293.4500494
             0.06        293.443356
          0.06025       293.4376084
           0.0605       293.4331854
          0.06075         293.43038
            0.061       293.4293409
          0.06125       293.4300147
           0.0615       293.4321363
          0.06175       293.4352871
            0.062       293.4390247
          0.06225       293.4430156
           0.0625       293.4471129
          0.06275       293.4513556
            0.063       293.4558972
          0.06325       293.4608979
           0.0635       293.4664238
          0.06375       293.4723832
            0.064       293.4785086
          0.06425       293.4843759
           0.0645       293.4894847
          0.06475       293.4933561
            0.065       293.4956482
          0.06525       293.4962557
           0.0655       293.4953537
          0.06575       293.4933718
            0.066       293.4909119
          0.06625       293.4886356
           0.0665       293.4871534
          0.06675       293.4869436
            0.067       293.4883138
          0.06725        293.491397
           0.0675       293.4961676
          0.06775       293.5024649
            0.068       293.5100137
          0.06825        293.518443
           0.0685       293.5273105
          0.06875        293.536133
            0.069        293.544417
          0.06925       293.5516909
           0.0695       293.5575411
          0.06975       293.5616506
             0.07       293.5638356
          0.07025       293.5640603
           0.0705       293.5624294
          0.07075       293.5591692
    0.07099788136       293.5546566
    0.07124366202       293.5493416
     0.0714873598       293.5437289
    0.07173105758       293.5382901
    0.07197267247         293.53356
    0.07221222228       293.5299482
    0.07245177209       293.5277569
    0.07268925681       293.5272416
    0.07292469425       293.5285082
     0.0731601317       293.5315751
    0.07339352185       293.5363041
    0.07362691201       293.5425212
    0.07386030217       293.5499727
    0.07409162693       293.5583131
    0.07432090457       293.5672685
    0.07455018221       293.5766865
    0.07477741272        293.586285
     0.0750026144       293.5958773
    0.07522580534       293.6052623
    0.07544899628       293.6142791
     0.0756701765       293.6225604
    0.07589135671       293.6298532
    0.07611052619       293.6357511
    0.07632969568       293.6399862
    0.07654685443       293.6422765
    0.07676202091       293.6425326
    0.07697718738       293.6408004
    0.07719036157       293.6373119
    0.07740353576       293.6324029
    0.07761471767       293.6266121
    0.07782589958       293.6204362
    0.07803508921       293.6144942
    0.07824427883       293.6092508
    0.07845346846       293.6051435
    0.07866064665       293.6025111
    0.07886782483       293.6014926
    0.07907299158       293.6021364
    0.07927815833       293.6043851
    0.07948131364        293.608086
    0.07968446895       293.6131067
    0.07988561283       293.6192231
     0.0800867567       293.6263279
    0.08028588913       293.6342058
    0.08048502156       293.6428106
    0.08068214256        293.651939
    0.08087727243       293.6614524
     0.0810724023       293.6712805
    0.08126554106       293.6811147
    0.08145867981       293.6907881
    0.08164982744       293.6998769
    0.08183900448        293.708045
    0.08202818151       293.7150371
    0.08221538795       293.7204954
     0.0824025944       293.7242747
    0.08258783025       293.7262381
    0.08277306609       293.7264349
    0.08295633135       293.7250212
     0.0831395966       293.7222569
    0.08332089126       293.7185381
    0.08350218592       293.7142494
    0.08368348058       293.7098116
    0.08386278299       293.7056791
    0.08404208541       293.7021593
    0.08421939557       293.6995476
    0.08439670573       293.6979752
    0.08457401589       293.6975328
    0.08475132605       293.6982036
    0.08492659817       293.6998713
    0.08510187028       293.7024024
     0.0852771424       293.7056369
    0.08545035249       293.7093706
    0.08562356258       293.7135075
    0.08579677267       293.7179507
    0.08596998276       293.7226344
    0.08614319284       293.7275108
    0.08631426454       293.7324778
    0.08648533623       293.7375466
    0.08665640792        293.742671
    0.08682747962       293.7477854
    0.08699635808       293.7527416
    0.08716523655       293.7575045
    0.08733411502       293.7619624
     0.0875007714       293.7659568
    0.08766742778       293.7694558
    0.08783408416       293.7723896
    0.08799848843       293.7746923
     0.0881628927       293.7764009
    0.08832729697       293.7775425
    0.08848941784       293.7781667
    0.08865153872       293.7783605
    0.08881365959       293.7781972
    0.08897346445       293.7777576
    0.08913326932       293.7771108
    0.08929307418       293.7763332
    0.08945287904       293.7755184
    0.08961029876       293.7747929
    0.08976771848       293.7742853
    0.08992513819       293.7741615
    0.09008255791       293.7746039
    0.09023751794       293.7757712
    0.09039247797       293.7778249
      0.090547438       293.7808909
    0.09070239804       293.7850436
    0.09085481774       293.7902018
    0.09100723745       293.7963593
    0.09115965715        293.803381
    0.09131207685       293.8110642
    0.09146449656       293.8191516
    0.09161691626       293.8273486
    0.09176661419       293.8352177
    0.09191631211       293.8426441
    0.09206601004        293.849422
    0.09221570796       293.8554216
    0.09236540588       293.8605992
    0.09251510381       293.8649899
    0.09266186648       293.8686332
    0.09280862915       293.8717673
    0.09295539182       293.8745572
    0.09310215449       293.8771594
    0.09324891716       293.8796935
    0.09339255722       293.8821699
    0.09353619728       293.8846355
    0.09367983734       293.8870138
     0.0938234774       293.8891675
    0.09396711746       293.8909178
    0.09411075752       293.8920782
    0.09425439758        293.892488
    0.09439453423       293.8920696
    0.09453467087       293.8908149
    0.09467480752       293.8887835
    0.09481494416       293.8861212
     0.0949550808       293.8830459
    0.09509521745       293.8798234
    0.09523146141       293.8768167
    0.09536770537       293.8741838
    0.09550394933       293.8721294
    0.09564019329       293.8707919
    0.09577643725       293.8702286
    0.09591268121       293.8704143
    0.09604892517       293.8712467
    0.09618516913       293.8725653
    0.09632141309       293.8741811
    0.09645765705       293.8759183
    0.09658885493       293.8775874
    0.09672005282       293.8792007
    0.09685125071       293.8807849
    0.09698244859       293.8824464
    0.09711364648       293.8843578
    0.09724484437       293.8867342
    0.09737604226       293.8898011
    0.09750724014         293.89376
    0.09763843803       293.8987508
    0.09776963592       293.9048186
     0.0979008338         293.91189
    0.09803203169        293.919763
    0.09816322958       293.9281164
    0.09829442747        293.936539
    0.09842562535       293.9445733
    0.09855682324       293.9517696
    0.09868802113       293.9577408
    0.09881921902       293.9622088
     0.0989504169       293.9650344
    0.09908161479       293.9662291
    0.09921281268       293.9659559
    0.09934401056       293.9645181
    0.09947520845        293.962332
    0.09960640634       293.9598794
    0.09973760423        293.957645
    0.09986880211       293.9560517
              0.1       293.9554069
     0.1001246883       293.9558199
     0.1002493766       293.9572392
     0.1003737531       293.9595346
     0.1004978187       293.9624714
     0.1006215742       293.9657435
     0.1007450203       293.9690153
     0.1008681577       293.9719676
     0.1009909873       293.9743386
     0.1011135098       293.9759537
     0.1012357261       293.9767435
     0.1013576367       293.9767468
     0.1014792427       293.9761014
     0.1016005446       293.9750187
     0.1017215432       293.9737492
     0.1018422393       293.9725451
     0.1019626337       293.9716285
     0.1020827271       293.9711656
     0.1022025203       293.9712578
      0.102322014       293.9719389
      0.102441209       293.9731843
      0.102560106       293.9749283
     0.1026787057       293.9770849
     0.1027970089       293.9795692
     0.1029150164       293.9823121
     0.1030327289       293.9852694
     0.1031504413       293.9884326
     0.1032678588       293.9918029
     0.1033846891       293.9953981
     0.1035012274       293.9992618
     0.1036174743       294.0034284
     0.1037334307       294.0079202
     0.1038490971       294.0127386
     0.1039644743       294.0178564
     0.1040795631       294.0232138
     0.1041943642       294.0287186
     0.1043088783       294.0342506
     0.1044231061       294.0396703
     0.1045370484       294.0448307
     0.1046507057       294.0495892
      0.104764079       294.0538171
     0.1048771688       294.0574073
     0.1049899759       294.0602775
     0.1051025009       294.0623752
     0.1052147447       294.0636794
     0.1053267078       294.0642045
      0.105438391       294.0640013
     0.1055497951       294.0631568
     0.1056609206       294.0617915
     0.1057717683       294.0600553
      0.105882616       294.0581143
     0.1059931859       294.0561547
     0.1061034786       294.0543553
      0.106213495       294.0528771
     0.1063232356        294.051851
     0.1064327012       294.0513686
     0.1065418924       294.0514752
     0.1066508099       294.0521686
     0.1067597275       294.0534058
     0.1068683714       294.0551026
     0.1069767423        294.057151
      0.107084841       294.0594326
      0.107192668       294.0618341
     0.1073002241        294.064262
     0.1074077802       294.0666587
     0.1075150654       294.0689896
     0.1076220804       294.0712604
     0.1077288258       294.0735052
     0.1078353023        294.075778
     0.1079417788        294.078148
     0.1080479864       294.0806713
     0.1081539258       294.0833976
     0.1082598653       294.0863645
     0.1083655365       294.0895692
     0.1084709402        294.092986
     0.1085760771       294.0965608
     0.1086809477       294.1002162
     0.1087858184       294.1038715
      0.108890423       294.1074173
      0.108994762       294.1107869
     0.1090988362       294.1139296
     0.1092026463        294.116817
     0.1093061928       294.1194406
     0.1094094766       294.1218044
     0.1095127604       294.1239189
     0.1096157814        294.125773
     0.1097185402       294.1273447
     0.1098210375       294.1285917
     0.1099235349       294.1294537
     0.1100257708       294.1298538
     0.1101277458       294.1297155
     0.1102297209       294.1289706
     0.1103314352       294.1275763
     0.1104328893       294.1255247
      0.110534084       294.1228506
     0.1106352786       294.1196271
     0.1107362138       294.1159899
     0.1108368902       294.1121092
     0.1109373084       294.1081871
     0.1110374692       294.1044406
     0.1111376299       294.1010701
     0.1112375332       294.0982646
     0.1113371796       294.0961577
     0.1114368261       294.0948263
     0.1115362157       294.0942963
     0.1116356053       294.0945284
     0.1117347381       294.0954285
     0.1118338709       294.0968685
     0.1119327469       294.0986861
     0.1120316229       294.1007203
      0.112130242       294.1028163
      0.112228605       294.1048583
     0.1123269681       294.1067804
     0.1124250749       294.1085564
     0.1125231818       294.1102189
     0.1126210325       294.1118355
     0.1127186277       294.1135114
     0.1128162229       294.1153771
     0.1129135626       294.1175582
     0.1130106475       294.1201734
     0.1131077325       294.1233262
     0.1132045626         294.12707
     0.1133011385       294.1314228
     0.1133977145       294.1363724
     0.1134940363       294.1418411
     0.1135903581       294.1477423
     0.1136864257        294.153933
     0.1137822399        294.160271
     0.1138780541       294.1666315
     0.1139736148       294.1728688
     0.1140691755       294.1788898
     0.1141644827       294.1845928
     0.1142597899       294.1899318
     0.1143548437       294.1948558
     0.1144498974       294.1993644
     0.1145446977       294.2034547
     0.1146392452       294.2071558
     0.1147337927       294.2105186
     0.1148280873        294.213583
     0.1149221299       294.2164006
     0.1150161724       294.2190244
     0.1151099628       294.2214806
     0.1152037533       294.2237901
     0.1152972916        294.225938
     0.1153905784       294.2278841
     0.1154838653       294.2295843
     0.1155769007       294.2309627
     0.1156699361       294.2319391
       0.11576272       294.2324245
      0.115855504       294.2323413
     0.1159480365       294.2316291
     0.1160403182       294.2302581
        0.1161326       294.2282274
      0.116224631       294.2255847
     0.1163164119       294.2224136
     0.1164081928       294.2188216
     0.1164997236       294.2149619
      0.116591005       294.2109968
     0.1166822864       294.2070846
     0.1167733184       294.2034024
     0.1168641017       294.2001017
      0.116954885       294.1973029
     0.1170454195       294.1951062
     0.1171359541       294.1935603
     0.1172262399       294.1926799
     0.1173165258       294.1924231
     0.1174065629       294.1927039
        0.1174966       294.1933957
     0.1175863884       294.1943466
     0.1176761768       294.1953936
     0.1177657165       294.1963679
     0.1178550081       294.1971219
     0.1179442998       294.1975417
     0.1180333434       294.1975531
     0.1181221396       294.1971325
     0.1182109359       294.1963012
     0.1182994848       294.1951288
     0.1183880338        294.193719
     0.1184763353       294.1922138
     0.1185646369       294.1907686
     0.1186526912       294.1895563
     0.1187407454       294.1887394
     0.1188285523       294.1884706
     0.1189163592       294.1888735
     0.1190039187       294.1900373
     0.1190914783       294.1920161
     0.1191790378       294.1948231
     0.1192663493       294.1984204
     0.1193536609       294.2027527
     0.1194409724       294.2077292
     0.1195280351       294.2132231
     0.1196150979       294.2191274
     0.1197019119       294.2253048
     0.1197887259       294.2316613
     0.1198752911       294.2380804
     0.1199618564       294.2444933
     0.1200481729       294.2508025
     0.1201344894       294.2569515
     0.1202205572       294.2628521
     0.1203066249       294.2684533
     0.1203924439       294.2736726
     0.1204782629       294.2784583
     0.1205640819       294.2827397
     0.1206496515       294.2864349
     0.1207349722       294.2894807
      0.120820293         294.29183
      0.120905365       294.2934359
     0.1209904371       294.2942859
     0.1210752604       294.2943898
     0.1211600836       294.2937971
     0.1212446582       294.2925978
     0.1213289847       294.2909178
     0.1214133112       294.2889027
     0.1214973897       294.2867366
     0.1215814682       294.2845662
     0.1216652987       294.2825442
     0.1217491292       294.2807889
     0.1218329596       294.2793925
     0.1219165414       294.2784097
     0.1220001231        294.277844
     0.1220837048       294.2776585
      0.122167037        294.277772
     0.1222503692       294.2780644
     0.1223337015       294.2783856
     0.1224170337       294.2785656
     0.1225001149       294.2784317
     0.1225831961       294.2778193
     0.1226662774       294.2765836
     0.1227493586       294.2746158
     0.1228321873       294.2718682
      0.122915016       294.2683401
     0.1229978447       294.2641005
     0.1230804201       294.2592943
     0.1231629955       294.2540889
     0.1232455709        294.248698
     0.1233278922       294.2433723
     0.1234102135       294.2383357
     0.1234925348       294.2338211
     0.1235746013       294.2300522
     0.1236566678       294.2271967
     0.1237387342       294.2254009
      0.123820545        294.224768
     0.1239023558       294.2253453
     0.1239841666       294.2271389
     0.1240659774        294.230109
     0.1241477882       294.2341754
     0.1242293409       294.2392063
     0.1243108936       294.2450693
     0.1243924463        294.251594
     0.1244737402       294.2585648
      0.124555034       294.2657944
     0.1246360689       294.2730496
     0.1247171038       294.2801518
     0.1247981388       294.2869214
      0.124878914        294.293196
     0.1249596892       294.2988747
     0.1250404644       294.3038718
      0.125120979       294.3081356
     0.1252014936       294.3116861
     0.1252820082       294.3145574
     0.1253625229       294.3168123
     0.1254427752       294.3185328
     0.1255230276        294.319835
       0.12560328       294.3208437
     0.1256835323       294.3216922
     0.1257637847       294.3225272
     0.1258437722       294.3234733
     0.1259237597       294.3246333
     0.1260037472       294.3260811
     0.1260837348       294.3278672
     0.1261634556       294.3300105
     0.1262431765       294.3325158
     0.1263226308       294.3353416
      0.126402085       294.3384307
     0.1264815393       294.3416868
      0.126560726       294.3449771
     0.1266399128       294.3481748
      0.126718832       294.3511282
     0.1267977512       294.3537162
     0.1268764029       294.3558224
     0.1269550546       294.3573782
     0.1270337063       294.3583419
     0.1271120895       294.3587066
     0.1271904728       294.3585026
     0.1272685876        294.357786
     0.1273467024       294.3566326
     0.1274248172       294.3551367
     0.1275026627       294.3534136
     0.1275805082       294.3515734
     0.1276580843       294.3497509
     0.1277356603       294.3480294
     0.1278132364       294.3464911
     0.1278905422       294.3452055
      0.127967848       294.3442136
     0.1280451538       294.3435345
     0.1281221884       294.3431681
     0.1281992229       294.3430899
     0.1282762575       294.3432571
      0.128353292       294.3436032
     0.1284300534       294.3440383
     0.1285068148       294.3444576
     0.1285835762       294.3447445
     0.1286603375       294.3447808
     0.1287370989       294.3444575
     0.1288135842        294.343693
     0.1288900694       294.3424386
     0.1289665547       294.3406834
     0.1290430399       294.3384596
     0.1291195252       294.3358451
     0.1291957313       294.3329715
     0.1292719374       294.3299827
     0.1293481435       294.3270506
     0.1294243496       294.3243513
     0.1295002745       294.3220576
     0.1295761995       294.3202985
     0.1296521244       294.3191802
     0.1297280493       294.3187691
     0.1298036909        294.319087
     0.1298793325       294.3201136
     0.1299549741        294.321794
     0.1300306157       294.3240422
     0.1301062573       294.3267474
     0.1301816124       294.3297716
     0.1302569675       294.3329917
     0.1303323226       294.3362774
     0.1304076777        294.339509
     0.1304830327       294.3425845
      0.130558098       294.3454162
     0.1306331633       294.3479688
     0.1307082285        294.350228
     0.1307832938       294.3522144
      0.130858359       294.3539811
     0.1309331311       294.3556023
     0.1310079031       294.3571823
     0.1310826751       294.3588238
     0.1311574472       294.3606225
     0.1312319237       294.3626459
     0.1313064002        294.364947
     0.1313808766        294.367537
     0.1314553531       294.3703908
     0.1315298296       294.3734502
      0.131604007       294.3766178
     0.1316781844       294.3798046
     0.1317523618       294.3829043
     0.1318265392       294.3858151
     0.1319007166       294.3884485
     0.1319745912       294.3907261
     0.1320484658       294.3926108
     0.1321223405       294.3940742
     0.1321962151       294.3951072
     0.1322700897       294.3957197
     0.1323436578       294.3959373
     0.1324172259       294.3957999
      0.132490794       294.3953491
     0.1325643621        294.394628