# Probe 0 (2.4 0 1.5)
#           Probe                 0
#            Time
    1.1999904e-06      0.9999683232
  2.639965056e-06       0.999930307
  4.367944597e-06      0.9998846792
  6.441505713e-06      0.9998299138
   8.92973777e-06      0.9997641782
  1.191552707e-05      0.9996852715
  1.549838863e-05      0.9995905475
  1.979776087e-05      0.9994768255
  2.495674128e-05      0.9993402871
  3.114713435e-05      0.9991763373
  3.857523794e-05      0.9989794432
  4.748896225e-05      0.9987429342
  5.818543142e-05       0.998458783
  7.102064463e-05       0.998117326
  8.642131685e-05      0.9977069136
  0.0001049009832       0.997213432
  0.0001270765827       0.996619789
  0.0001536896689      0.9959052431
  0.0001856219625      0.9950448395
  0.0002239407148      0.9940079771
  0.0002699019884      0.9927580165
  0.0003250351347      0.9912495514
  0.0003911802278      0.9894267334
  0.0004705543394      0.9872204869
  0.0005658032734      0.9845456019
  0.0006799700095      0.9812993463
  0.0008169700928      0.9773441074
  0.0009814618316      0.9725042359
   0.001179117227      0.9665478444
   0.001416111804      0.9591910228
   0.001666544217      0.9511682194
   0.001916976631      0.9429213098
   0.002167409044      0.9344546923
   0.002417841458      0.9257461418
   0.002668273871      0.9167743534
   0.002918706284      0.9075242115
   0.003169138698      0.8979880691
   0.003419571111       0.888163463
   0.003670003524      0.8780469194
   0.003920435938      0.8676297211
   0.004170868351      0.8568997248
   0.004421300765      0.8458455242
   0.004671733178      0.8344584495
   0.004922165591      0.8227311856
   0.005172598005      0.8106555155
   0.005423030418      0.7982218489
   0.005673462831      0.7854201967
   0.005923895245      0.7722408039
   0.006174327658      0.7586739128
   0.006424760072      0.7447094554
   0.006675192485      0.7303371801
   0.006925624898        0.71554667
   0.007176057312      0.7003274821
   0.007426489725      0.6846696398
   0.007676922139      0.6685630261
   0.007927354552      0.6519972219
   0.008177786965      0.6349616691
   0.008428219379      0.6174460704
   0.008678651792      0.5994399947
   0.008929084205      0.5809329335
   0.009179516619      0.5619143034
   0.009429949032      0.5423735092
   0.009680381446      0.5222999467
   0.009930813859       0.501682979
    0.01018124627      0.4805118848
    0.01043167869      0.4587758676
     0.0106821111      0.4364640982
    0.01093254351      0.4135658063
    0.01118297593      0.3900703445
    0.01143340834      0.3659672529
    0.01168384075      0.3412463626
    0.01193427317      0.3158978227
    0.01218470558      0.2899123202
    0.01243513799       0.263280873
    0.01268557041      0.2359953576
    0.01293600282      0.2080489079
    0.01318643523      0.1794367022
    0.01343686765      0.1501575535
    0.01368730006      0.1202174375
    0.01393773247     0.08963909719
    0.01418816489     0.05849719614
     0.0144385973     0.02715866519
    0.01468902971    0.002177135394
    0.01493946213  -0.0001980426237
    0.01518989454   4.951003067e-05
    0.01544032695   0.0001571501557
    0.01569075937   0.0001621475357
    0.01594119178   0.0001358772049
    0.01619162419   0.0001130426487
    0.01644205661   0.0001055128615
    0.01669248902   0.0001063890927
    0.01694292143   0.0001102666145
    0.01719335385   0.0001138022965
    0.01744378626   0.0001140589813
    0.01769421867   0.0001119901304
    0.01794465109   0.0001096577767
     0.0181950835   0.0001079421533
    0.01844551591   0.0001064016654
    0.01869594833   0.0001044924857
    0.01894638074   0.0001023441109
    0.01919681315   0.0001003180109
    0.01944724557   9.847847219e-05
    0.01969767798   9.652525601e-05
    0.01994811039   9.429335025e-05
    0.02019854281   9.196778724e-05
    0.02044897522   8.989321712e-05
    0.02069940763   8.826539069e-05
    0.02094984005   8.704376747e-05
    0.02120027246   8.608859679e-05
    0.02145070487   8.529577845e-05
    0.02170113729   8.466049466e-05
     0.0219515697   8.422575761e-05
    0.02220200211   8.396220843e-05
    0.02245243453   8.372284786e-05
    0.02270286694   8.328419993e-05
    0.02295329935   8.251448676e-05
    0.02320373177   8.145551986e-05
    0.02345416418   8.015275886e-05
    0.02370459659   7.856242006e-05
    0.02395502901    7.66920916e-05
    0.02420546142   7.464779903e-05
    0.02445589384    7.25169714e-05
    0.02470632625   7.032011365e-05
    0.02495675866   6.810117522e-05
    0.02520719108   6.598891635e-05
    0.02545762349   6.413010061e-05
     0.0257080559   6.257617347e-05
    0.02595848832   6.125309357e-05
    0.02620892073   6.003143555e-05
    0.02645935314   5.882999982e-05
    0.02670978556   5.765288838e-05
    0.02696021797   5.651081089e-05
    0.02721065038   5.537531926e-05
     0.0274610828   5.421406876e-05
    0.02771151521   5.304535908e-05
    0.02796194762   5.232799183e-05
    0.02821238004   5.153250867e-05
    0.02846281245   5.081812505e-05
    0.02871324486   4.995416312e-05
    0.02896367728   4.900306864e-05
    0.02921410969   4.795250077e-05
     0.0294645421   4.688326505e-05
    0.02971497452   4.586333345e-05
    0.02996540693   4.491173956e-05
    0.03021583934   4.404330448e-05
    0.03046627176   4.326897772e-05
    0.03071670417   4.261126271e-05
    0.03096713658   4.204624371e-05
      0.031217569   4.149244978e-05
    0.03146800141   4.104427866e-05
    0.03171843382   4.061133902e-05
    0.03196886624   4.011194626e-05
    0.03221929865   3.950651573e-05
    0.03246973106   3.885922637e-05
    0.03272016348   3.822664539e-05
    0.03297059589   3.766514781e-05
     0.0332210283   3.716668212e-05
    0.03347146072   3.668997201e-05
    0.03372189313   3.617983421e-05
    0.03397232554   3.570813685e-05
    0.03422275796   3.527589417e-05
    0.03447319037   3.477459986e-05
    0.03472362278   3.421237078e-05
     0.0349740552   3.369255654e-05
    0.03522448761   3.326911837e-05
    0.03547492002   3.292035407e-05
    0.03572535244   3.241780564e-05
    0.03597578485   3.152487179e-05
    0.03622621726   3.085114675e-05
    0.03647664968    3.05411391e-05
    0.03672708209   3.037852123e-05
     0.0369775145    3.00253871e-05
    0.03722794692   2.938619447e-05
    0.03747837933   2.860337365e-05
    0.03772881174   2.784199944e-05
    0.03797924416   2.716219479e-05
    0.03822967657   0.0006366427661
    0.03848010898    0.001469101963
     0.0387305414    0.002375867284
    0.03898097381    0.003304731811
    0.03923140622    0.004244470621
    0.03948183864    0.005191266585
    0.03973227105    0.006139539177
    0.03998270346    0.007081770824
    0.04023313588     0.00800876542
    0.04048356829    0.008912982704
     0.0407340007    0.009796090578
    0.04098443312     0.01065668429
    0.04123486553     0.01149482395
    0.04148529795     0.01230330724
    0.04173573036     0.01307353824
    0.04198616277     0.01380289204
    0.04223659519      0.0144972565
     0.0424870276      0.0151638456
    0.04273746001     0.01581641491
    0.04298789243     0.01646425665
    0.04323832484     0.01711284789
    0.04348875725      0.0177529834
    0.04373918967     0.01838784509
    0.04398962208     0.01902617805
    0.04424005449     0.01967583413
    0.04449048691     0.02033810557
    0.04474091932     0.02100774167
    0.04499135173     0.02167752569
    0.04524178415     0.02234220174
    0.04549221656     0.02299953478
    0.04574264897     0.02364848998
    0.04599308139      0.0242903777
     0.0462435138     0.02492544991
    0.04649394621     0.02555084936
    0.04674437863     0.02616584795
    0.04699481104     0.02676940457
    0.04724524345      0.0273592202
    0.04749567587     0.02793172488
    0.04774610828      0.0284911428
    0.04799654069     0.02904052339
    0.04824697311     0.02957558945
    0.04849740552      0.0300932481
    0.04874783793     0.03059747794
    0.04899827035     0.03109542027
    0.04924870276     0.03158883233
    0.04949913517     0.03207698238
    0.04974956759     0.03255544195
             0.05     0.03301860701
          0.05025     0.03347075542
           0.0505     0.03391651444
          0.05075     0.03435694288
            0.051     0.03480344596
          0.05125     0.03524855305
           0.0515     0.03568824796
          0.05175     0.03611850126
            0.052     0.03654346142
          0.05225     0.03696058159
           0.0525     0.03736249287
          0.05275     0.03775816001
            0.053     0.03815659937
          0.05325     0.03856042848
           0.0535     0.03896885789
          0.05375     0.03938140276
            0.054     0.03978993321
          0.05425     0.04018889351
           0.0545     0.04057686458
          0.05475     0.04095975702
            0.055     0.04133969056
          0.05525     0.04171557354
           0.0555     0.04208616274
          0.05575     0.04245220585
            0.056     0.04281498439
          0.05625     0.04317577139
           0.0565     0.04353379185
          0.05675     0.04388683773
            0.057     0.04423312877
          0.05725     0.04457188533
           0.0575     0.04490329269
          0.05775     0.04522916559
            0.058     0.04554987192
          0.05825     0.04586613849
           0.0585     0.04617736499
          0.05875     0.04648200593
            0.059     0.04677868139
          0.05925     0.04706910312
           0.0595     0.04735581229
          0.05975     0.04764018675
             0.06     0.04792107265
          0.06025     0.04819763541
           0.0605     0.04847028793
          0.06075     0.04874078975
            0.061     0.04900944742
          0.06125     0.04927637971
           0.0615     0.04954169946
          0.06175     0.04980502323
            0.062     0.05006544674
          0.06225     0.05032223048
           0.0625     0.05057558282
          0.06275     0.05082554196
            0.063     0.05107143811
          0.06325     0.05131267417
           0.0635     0.05154925065
          0.06375     0.05178136549
            0.064     0.05200915743
          0.06425     0.05223259154
           0.0645     0.05245210251
          0.06475     0.05266838898
            0.065     0.05288147178
          0.06525     0.05309207085
           0.0655     0.05330033006
          0.06575     0.05350716671
            0.066     0.05371311616
          0.06625     0.05391838053
           0.0665     0.05412295951
          0.06675     0.05432594181
            0.067     0.05452649732
          0.06725     0.05472404108
           0.0675     0.05491923582
          0.06775     0.05511304192
            0.068     0.05530603181
          0.06825     0.05549808626
           0.0685     0.05568844813
          0.06875     0.05587650452
            0.069     0.05606220814
          0.06925     0.05624590748
           0.0695     0.05642804112
          0.06975     0.05660889633
             0.07     0.05678861982
          0.07025     0.05696756116
           0.0705     0.05714543241
          0.07075     0.05732167877
    0.07099788136      0.0574949284
    0.07124366202     0.05766567984
     0.0714873598      0.0578339316
    0.07173105758     0.05800098645
    0.07197267247     0.05816580681
    0.07221222228     0.05832930699
    0.07245177209     0.05849303459
    0.07268925681     0.05865528369
    0.07292469425     0.05881627484
     0.0731601317     0.05897778534
    0.07339352185      0.0591387231
    0.07362691201     0.05929980334
    0.07386030217     0.05945935472
    0.07409162693     0.05961491582
    0.07432090457     0.05976706791
    0.07455018221     0.05991797429
    0.07477741272        0.06006609
     0.0750026144       0.060211153
    0.07522580534     0.06035340451
    0.07544899628     0.06049414305
     0.0756701765     0.06063221174
    0.07589135671     0.06076913182
    0.07611052619     0.06090399516
    0.07632969568     0.06103821022
    0.07654685443     0.06117046018
    0.07676202091     0.06130063183
    0.07697718738     0.06143001567
    0.07719036157     0.06155764752
    0.07740353576     0.06168524058
    0.07761471767     0.06181194452
    0.07782589958     0.06193906886
    0.07803508921     0.06206537391
    0.07824427883     0.06219203634
    0.07845346846     0.06231917261
    0.07866064665     0.06244572265
    0.07886782483     0.06257291751
    0.07907299158     0.06269922912
    0.07927815833     0.06282535348
    0.07948131364     0.06294957341
    0.07968446895      0.0630727238
    0.07988561283     0.06319347079
     0.0800867567     0.06331308913
    0.08028588913     0.06343067886
    0.08048502156     0.06354780091
    0.08068214256     0.06366378486
    0.08087727243     0.06377912471
     0.0810724023     0.06389533098
    0.08126554106     0.06401124961
    0.08145867981     0.06412775827
    0.08164982744     0.06424322851
    0.08183900448     0.06435742165
    0.08202818151     0.06447142077
    0.08221538795     0.06458390729
     0.0824025944     0.06469573263
    0.08258783025     0.06480539555
    0.08277306609     0.06491411746
    0.08295633135     0.06502112905
     0.0831395966     0.06512811429
    0.08332089126      0.0652344095
    0.08350218592     0.06534138874
    0.08368348058     0.06544890666
    0.08386278299     0.06555544008
    0.08404208541     0.06566168476
    0.08421939557     0.06576608534
    0.08439670573     0.06586969856
    0.08457401589     0.06597273373
    0.08475132605     0.06607554594
    0.08492659817     0.06617723443
    0.08510187028     0.06627893185
     0.0852771424     0.06638043928
    0.08545035249     0.06648040851
    0.08562356258     0.06658020133
    0.08579677267     0.06668025331
    0.08596998276     0.06678098562
    0.08614319284     0.06688250149
    0.08631426454     0.06698317224
    0.08648533623     0.06708357685
    0.08665640792     0.06718323886
    0.08682747962     0.06728217316
    0.08699635808     0.06737974443
    0.08716523655     0.06747764178
    0.08733411502     0.06757586422
     0.0875007714     0.06767263912
    0.08766742778     0.06776885283
    0.08783408416     0.06786425351
    0.08799848843     0.06795774547
     0.0881628927     0.06805121048
    0.08832729697      0.0681453626
    0.08848941784     0.06823934165
    0.08865153872     0.06833438853
    0.08881365959     0.06842996724
    0.08897346445     0.06852399068
    0.08913326932     0.06861725536
    0.08929307418     0.06870955438
    0.08945287904     0.06880107026
    0.08961029876     0.06889085384
    0.08976771848     0.06898068299
    0.08992513819     0.06907080905
    0.09008255791     0.06916125884
    0.09023751794     0.06925042879
    0.09039247797     0.06933942106
      0.090547438     0.06942796988
    0.09070239804     0.06951599993
    0.09085481774     0.06960222142
    0.09100723745     0.06968830137
    0.09115965715     0.06977438719
    0.09131207685     0.06986044222
    0.09146449656     0.06994627634
    0.09161691626     0.07003164267
    0.09176661419     0.07011471476
    0.09191631211     0.07019709506
    0.09206601004     0.07027908272
    0.09221570796     0.07036100765
    0.09236540588     0.07044303025
    0.09251510381      0.0705250362
    0.09266186648     0.07060507328
    0.09280862915     0.07068430501
    0.09295539182     0.07076237064
    0.09310215449     0.07083913185
    0.09324891716     0.07091470295
    0.09339255722     0.07098779779
    0.09353619728       0.071060358
    0.09367983734     0.07113271172
     0.0938234774     0.07120494047
    0.09396711746     0.07127714192
    0.09411075752      0.0713493052
    0.09425439758     0.07142135116
    0.09439453423     0.07149140114
    0.09453467087     0.07156108326
    0.09467480752     0.07163027877
    0.09481494416     0.07169890972
     0.0949550808     0.07176693793
    0.09509521745     0.07183435644
    0.09523146141     0.07189934637
    0.09536770537     0.07196384232
    0.09550394933     0.07202794413
    0.09564019329     0.07209201543
    0.09577643725     0.07215583688
    0.09591268121     0.07221986714
    0.09604892517     0.07228383058
    0.09618516913     0.07234783258
    0.09632141309     0.07241181028
    0.09645765705     0.07247561426
    0.09658885493     0.07253672878
    0.09672005282     0.07259738056
    0.09685125071     0.07265750862
    0.09698244859     0.07271714821
    0.09711364648     0.07277639361
    0.09724484437     0.07283533461
    0.09737604226     0.07289398844
    0.09750724014     0.07295226174
    0.09763843803     0.07300998692
    0.09776963592     0.07306702446
     0.0979008338     0.07312333392
    0.09803203169     0.07317914414
    0.09816322958     0.07323490768
    0.09829442747     0.07329048928
    0.09842562535     0.07334605789
    0.09855682324     0.07340145729
    0.09868802113     0.07345649073
    0.09881921902      0.0735116934
     0.0989504169      0.0735665394
    0.09908161479       0.073621039
    0.09921281268     0.07367429882
    0.09934401056     0.07372672971
    0.09947520845     0.07377874355
    0.09960640634     0.07383071286
    0.09973760423     0.07388265906
    0.09986880211     0.07393443314
              0.1     0.07398594934
     0.1001246883     0.07403561747
     0.1002493766     0.07408489322
     0.1003737531     0.07413408946
     0.1004978187     0.07418198033
     0.1006215742     0.07422992034
     0.1007450203     0.07427904433
     0.1008681577     0.07432795301
     0.1009909873     0.07437774186
     0.1011135098     0.07442518639
     0.1012357261     0.07447214004
     0.1013576367     0.07451931314
     0.1014792427     0.07456670117
     0.1016005446     0.07461319722
     0.1017215432     0.07466179086
     0.1018422393     0.07470985263
     0.1019626337     0.07475698673
     0.1020827271     0.07480187392
     0.1022025203     0.07484578503
      0.102322014     0.07488887137
      0.102441209     0.07493128845
      0.102560106     0.07497541468
     0.1026787057     0.07501902165
     0.1027970089     0.07506141247
     0.1029150164     0.07510269186
     0.1030327289      0.0751438919
     0.1031504413     0.07518687909
     0.1032678588     0.07523004358
     0.1033846891     0.07527325453
     0.1035012274     0.07531581524
     0.1036174743     0.07535944997
     0.1037334307     0.07540291299
     0.1038490971     0.07544759754
     0.1039644743     0.07549237881
     0.1040795631     0.07553731806
     0.1041943642     0.07558273547
     0.1043088783     0.07562813125
     0.1044231061     0.07567222159
     0.1045370484     0.07571517249
     0.1046507057     0.07575846326
      0.104764079     0.07580081762
     0.1048771688     0.07584421594
     0.1049899759     0.07588750159
     0.1051025009      0.0759309353
     0.1052147447     0.07597421594
     0.1053267078     0.07601699053
      0.105438391     0.07606037612
     0.1055497951     0.07610338397
     0.1056609206     0.07614663221
     0.1057717683     0.07618979846
      0.105882616     0.07623294299
     0.1059931859       0.076276002
     0.1061034786     0.07631873686
      0.106213495     0.07636167269
     0.1063232356     0.07640426318
     0.1064327012     0.07644405785
     0.1065418924     0.07648367204
     0.1066508099     0.07652256013
     0.1067597275     0.07656037873
     0.1068683714     0.07659747561
     0.1069767423      0.0766336253
      0.107084841     0.07666912898
      0.107192668     0.07670337854
     0.1073002241     0.07673676859
     0.1074077802     0.07676994715
     0.1075150654     0.07680302734
     0.1076220804     0.07683606374
     0.1077288258     0.07686904968
     0.1078353023     0.07690195176
     0.1079417788     0.07693481645
     0.1080479864     0.07696753482
     0.1081539258     0.07700010161
     0.1082598653     0.07703261817
     0.1083655365     0.07706503668
     0.1084709402     0.07709739497
     0.1085760771     0.07712971805
     0.1086809477     0.07716200824
     0.1087858184     0.07719432447
      0.108890423     0.07722654631
      0.108994762     0.07725864582
     0.1090988362     0.07729061633
     0.1092026463     0.07732247239
     0.1093061928     0.07735423255
     0.1094094766     0.07738589879
     0.1095127604     0.07741751904
     0.1096157814     0.07744894685
     0.1097185402     0.07748011559
     0.1098210375     0.07751100235
     0.1099235349     0.07754174168
     0.1100257708     0.07757239708
     0.1101277458      0.0776031654
     0.1102297209     0.07763431699
     0.1103314352     0.07766588891
     0.1104328893     0.07769787343
      0.110534084     0.07773013394
     0.1106352786      0.0777625296
     0.1107362138     0.07779473676
     0.1108368902     0.07782657335
     0.1109373084     0.07785796656
     0.1110374692     0.07788896432
     0.1111376299      0.0779197873
     0.1112375332     0.07795054159
     0.1113371796     0.07798139501
     0.1114368261     0.07801253681
     0.1115362157      0.0780439151
     0.1116356053     0.07807556564
     0.1117347381     0.07810731075
     0.1118338709      0.0781391293
     0.1119327469     0.07817085933
     0.1120316229     0.07820255274
      0.112130242     0.07823415424
      0.112228605     0.07826573805
     0.1123269681     0.07829747764
     0.1124250749      0.0783293598
     0.1125231818     0.07836148125
     0.1126210325     0.07839369872
     0.1127186277     0.07842589256
     0.1128162229     0.07845800796
     0.1129135626     0.07848984682
     0.1130106475     0.07852136434
     0.1131077325     0.07855268423
     0.1132045626     0.07858384856
     0.1133011385     0.07861503179
     0.1133977145      0.0786464858
     0.1134940363     0.07867824558
     0.1135903581     0.07871041836
     0.1136864257     0.07874284415
     0.1137822399     0.07877537348
     0.1138780541     0.07880791157
     0.1139736148      0.0788402046
     0.1140691755     0.07887221243
     0.1141644827     0.07890378389
     0.1142597899     0.07893500853
     0.1143548437     0.07896587973
     0.1144498974     0.07899660321
     0.1145446977     0.07902723621
     0.1146392452     0.07905789375
     0.1147337927     0.07908872244
     0.1148280873     0.07911964175
     0.1149221299     0.07915059453
     0.1150161724     0.07918157304
     0.1151099628     0.07921240569
     0.1152037533     0.07924312164
     0.1152972916     0.07927363941
     0.1153905784     0.07930401557
     0.1154838653     0.07933443119
     0.1155769007     0.07936491078
     0.1156699361     0.07939561184
       0.11576272     0.07942646112
      0.115855504     0.07945747235
     0.1159480365     0.07948842402
     0.1160403182     0.07951915065
        0.1161326     0.07954959736
      0.116224631     0.07957962356
     0.1163164119     0.07960928172
     0.1164081928     0.07963880603
     0.1164997236      0.0796683325
      0.116591005     0.07969808281
     0.1166822864     0.07972830594
     0.1167733184     0.07975898628
     0.1168641017     0.07979007272
      0.116954885     0.07982150268
     0.1170454195     0.07985299034
     0.1171359541     0.07988443111
     0.1172262399     0.07991561149
     0.1173165258     0.07994658397
     0.1174065629     0.07997731981
        0.1174966     0.08000801918
     0.1175863884     0.08003872678
     0.1176761768     0.08006963088
     0.1177657165      0.0801006958
     0.1178550081     0.08013191119
     0.1179442998     0.08016330625
     0.1180333434      0.0801947118
     0.1181221396     0.08022604729
     0.1182109359     0.08025734091
     0.1182994848     0.08028847651
     0.1183880338     0.08031953909
     0.1184763353     0.08035045637
     0.1185646369     0.08038133623
     0.1186526912     0.08041211335
     0.1187407454     0.08044289464
     0.1188285523     0.08047361439
     0.1189163592     0.08050438256
     0.1190039187     0.08053514134
     0.1190914783     0.08056601622
     0.1191790378     0.08059705731
     0.1192663493     0.08062823054
     0.1193536609     0.08065970533
     0.1194409724     0.08069152299
     0.1195280351     0.08072358338
     0.1196150979     0.08075592863
     0.1197019119     0.08078839042
     0.1197887259     0.08082097774
     0.1198752911     0.08085352489
     0.1199618564     0.08088608015
     0.1200481729     0.08091853989
     0.1201344894     0.08095102104
     0.1202205572     0.08098347596
     0.1203066249     0.08101605147
     0.1203924439     0.08104869669
     0.1204782629     0.08108152722
     0.1205640819     0.08111453643
     0.1206496515     0.08114759494
     0.1207349722     0.08118065288
      0.120820293     0.08121375238
      0.120905365     0.08124675002
     0.1209904371     0.08127970897
     0.1210752604     0.08131251346
     0.1211600836     0.08134524844
     0.1212446582     0.08137780818
     0.1213289847      0.0814101824
     0.1214133112     0.08144245723
     0.1214973897     0.08147453899
     0.1215814682     0.08150654752
     0.1216652987     0.08153844611
     0.1217491292       0.081570419
     0.1218329596     0.08160257472
     0.1219165414      0.0816349179
     0.1220001231     0.08166760425
     0.1220837048      0.0817006263
      0.122167037     0.08173379881
     0.1222503692     0.08176707316
     0.1223337015     0.08180027533
     0.1224170337     0.08183325098
     0.1225001149     0.08186581389
     0.1225831961     0.08189807143
     0.1226662774     0.08193012663
     0.1227493586     0.08196215222
     0.1228321873     0.08199424798
      0.122915016     0.08202668543
     0.1229978447     0.08205957329
     0.1230804201     0.08209282658
     0.1231629955     0.08212647214
     0.1232455709     0.08216037018
     0.1233278922     0.08219424961
     0.1234102135     0.08222806747
     0.1234925348     0.08226173167
     0.1235746013     0.08229514829
     0.1236566678     0.08232848595
     0.1237387342     0.08236183479
      0.123820545     0.08239517257
     0.1239023558     0.08242865508
     0.1239841666     0.08246225764
     0.1240659774     0.08249590916
     0.1241477882      0.0825295275
     0.1242293409     0.08256294139
     0.1243108936     0.08259619464
     0.1243924463     0.08262929754
     0.1244737402     0.08266220548
      0.124555034     0.08269517084
     0.1246360689     0.08272823488
     0.1247171038     0.08276159632
     0.1247981388     0.08279527699
      0.124878914     0.08282915369
     0.1249596892     0.08286324619
     0.1250404644     0.08289740247
      0.125120979     0.08293132533
     0.1252014936     0.08296494959
     0.1252820082     0.08299815594
     0.1253625229     0.08303091145
     0.1254427752     0.08306317252
     0.1255230276     0.08309518624
       0.12560328     0.08312713816
     0.1256835323      0.0831592173
     0.1257637847     0.08319157834
     0.1258437722     0.08322420591
     0.1259237597     0.08325722505
     0.1260037472     0.08329058311
     0.1260837348     0.08332417329
     0.1261634556     0.08335775188
     0.1262431765     0.08339130957
     0.1263226308     0.08342465218
      0.126402085     0.08345786573
     0.1264815393     0.08349098123
      0.126560726     0.08352395986
     0.1266399128     0.08355700088
      0.126718832     0.08359006726
     0.1267977512     0.08362331153
     0.1268764029     0.08365661811
     0.1269550546     0.08369005979
     0.1270337063     0.08372357573
     0.1271120895     0.08375699119
     0.1271904728     0.08379038125
     0.1272685876     0.08382362372
     0.1273467024     0.08385685324
     0.1274248172     0.08389010568
     0.1275026627     0.08392330002
     0.1275805082     0.08395656589
     0.1276580843     0.08398977275
     0.1277356603     0.08402297437
     0.1278132364     0.08405612755
     0.1278905422     0.08409780085
      0.127967848     0.08413325704
     0.1280451538     0.08416644589
     0.1281221884     0.08419860545
     0.1281992229     0.08423034931
     0.1282762575     0.08427087262
      0.128353292     0.08430522496
     0.1284300534     0.08434574419
     0.1285068148     0.08438051524
     0.1285835762      0.0844222266
     0.1286603375     0.08446341094
     0.1287370989     0.08450326663
     0.1288135842     0.08454663279
     0.1288900694     0.08458669182
     0.1289665547      0.0846300644
     0.1290430399     0.08466492192
     0.1291195252     0.08469682795
     0.1291957313     0.08472753295
     0.1292719374     0.08475837801
     0.1293481435      0.0847921624
     0.1294243496     0.08482390725
     0.1295002745     0.08485473643
     0.1295761995     0.08488479641
     0.1296521244     0.08491460802
     0.1297280493     0.08494441676
     0.1298036909     0.08497422921
     0.1298793325     0.08500422106
     0.1299549741     0.08503442361
     0.1300306157     0.08506516744
     0.1301062573     0.08510015677
     0.1301816124     0.08513231095
     0.1302569675     0.08516366734
     0.1303323226     0.08519530787
     0.1304076777     0.08522654468
     0.1304830327     0.08525761332
      0.130558098     0.08528845577
     0.1306331633     0.08532081377
     0.1307082285     0.08536168864
     0.1307832938     0.08540525095
      0.130858359     0.08543968631
     0.1309331311     0.08547090039
     0.1310079031     0.08550101967
     0.1310826751     0.08553067769
     0.1311574472     0.08556011969
     0.1312319237     0.08559911858
     0.1313064002     0.08564120865
     0.1313808766     0.08568422288
     0.1314553531      0.0857274726
     0.1315298296     0.08577076178
      0.131604007     0.08580570497
     0.1316781844     0.08584511126
     0.1317523618     0.08588708398
     0.1318265392     0.08592992517
     0.1319007166      0.0859628354
     0.1319745912      0.0859923828
     0.1320484658     0.08602092339
     0.1321223405     0.08604918141
     0.1321962151     0.08607738097
     0.1322700897     0.08611578055
     0.1323436578     0.08615734633
     0.1324172259     0.08619995846
      0.132490794     0.08624287137
     0.1325643621     0.08628585907