# Probe 0 (0.4 0.005 1.4)
# Probe 1 (0.9 0.005 1.4)
# Probe 2 (1.4 0.005 1.4)
# Probe 3 (1.9 0.005 1.4)
# Probe 4 (2.4 0.005 1.4)
# Probe 5 (2.9 0.005 1.4)
# Probe 6 (3.4 0.005 1.4)
# Probe 7 (3.9 0.005 1.4)
# Probe 8 (4.4 0.005 1.4)
# Probe 9 (4.9 0.005 1.4)
# Probe 10 (5.4 0.005 1.4)
# Probe 11 (5.9 0.005 1.4)
# Probe 12 (6.4 0.005 1.4)
# Probe 13 (6.9 0.005 1.4)
# Probe 14 (7.4 0.005 1.4)
# Probe 15 (7.9 0.005 1.4)
# Probe 16 (8.4 0.005 1.4)
#           Probe                 0                 1                 2                 3                 4                 5                 6                 7                 8                 9                10                11                12                13                14                15                16
#            Time
    1.1999904e-06            293.15            293.15            293.15       293.1500001       293.1647296            293.15            293.15            293.15            293.15            293.15            293.15            293.15            293.15            293.15            293.15            293.15            293.15
  2.639965056e-06            293.15            293.15            293.15       293.1500002       293.1824067            293.15            293.15            293.15       293.1499999            293.15            293.15            293.15            293.15            293.15            293.15            293.15            293.15
  4.367944597e-06            293.15            293.15            293.15       293.1500005       293.2036229            293.15            293.15            293.15       293.1499999            293.15            293.15            293.15            293.15            293.15            293.15            293.15            293.15
  6.441505713e-06            293.15            293.15            293.15       293.1500011       293.2290874       293.1500001            293.15            293.15       293.1499998       293.1499999            293.15            293.15            293.15            293.15            293.15            293.15            293.15
   8.92973777e-06            293.15            293.15            293.15       293.1500022       293.2596525       293.1500003            293.15            293.15       293.1499998       293.1499999            293.15            293.15            293.15            293.15            293.15            293.15            293.15
  1.191552707e-05            293.15            293.15            293.15       293.1500042       293.2963404       293.1500006            293.15            293.15       293.1499997       293.1499999            293.15            293.15            293.15            293.15            293.15            293.15            293.15
  1.549838863e-05            293.15            293.15            293.15       293.1500074       293.3403809       293.1500013            293.15            293.15       293.1499996       293.1499998            293.15            293.15            293.15            293.15            293.15            293.15            293.15
  1.979776087e-05            293.15            293.15            293.15        293.150013       293.3932493       293.1500026            293.15            293.15       293.1499995       293.1499998            293.15            293.15            293.15            293.15            293.15            293.15            293.15
  2.495674128e-05            293.15            293.15            293.15       293.1500222       293.4567173       293.1500052            293.15            293.15       293.1499994       293.1499997            293.15            293.15            293.15            293.15            293.15            293.15            293.15
  3.114713435e-05            293.15            293.15            293.15       293.1500377       293.5329131       293.1500101            293.15            293.15       293.1499992       293.1499997            293.15            293.15            293.15            293.15            293.15            293.15            293.15
  3.857523794e-05            293.15            293.15            293.15       293.1500636       293.6243934       293.1500191            293.15            293.15        293.149999       293.1499996            293.15            293.15            293.15            293.15            293.15            293.15            293.15
  4.748896225e-05            293.15            293.15            293.15        293.150107       293.7342304       293.1500356            293.15            293.15       293.1499988       293.1499995            293.15            293.15            293.15            293.15            293.15            293.15            293.15
  5.818543142e-05            293.15            293.15            293.15       293.1501798       293.8661029       293.1500654            293.15            293.15       293.1499986       293.1499994            293.15            293.15            293.15            293.15            293.15            293.15            293.15
  7.102064463e-05            293.15            293.15            293.15       293.1503023       294.0244074       293.1501188            293.15            293.15       293.1499982       293.1499992            293.15            293.15            293.15            293.15            293.15            293.15            293.15
  8.642131685e-05            293.15            293.15       293.1500001       293.1505087       294.2143885       293.1502139            293.15            293.15       293.1499979        293.149999            293.15            293.15            293.15            293.15            293.15            293.15            293.15
  0.0001049009832            293.15            293.15       293.1500002       293.1508578        294.442304        293.150382       293.1500001            293.15       293.1499974       293.1499988            293.15            293.15            293.15            293.15            293.15            293.15            293.15
  0.0001270765827            293.15            293.15       293.1500004       293.1514492       294.7155652       293.1506775       293.1500002            293.15       293.1499969       293.1499986            293.15            293.15            293.15            293.15            293.15            293.15            293.15
  0.0001536896689            293.15            293.15       293.1500011       293.1524527       295.0428808       293.1511943       293.1500004            293.15       293.1499962       293.1499983            293.15            293.15            293.15            293.15            293.15            293.15            293.15
  0.0001856219625            293.15            293.15       293.1500029       293.1541554       295.4342355       293.1520928       293.1500011            293.15       293.1499954       293.1499979            293.15            293.15            293.15            293.15            293.15            293.15            293.15
  0.0002239407148            293.15            293.15       293.1500074       293.1570402       295.9010785       293.1536452       293.1500028            293.15       293.1499945       293.1499974            293.15            293.15            293.15            293.15            293.15            293.15            293.15
  0.0002699019884            293.15            293.15       293.1500187       293.1619066       296.4557448       293.1563048        293.150007            293.15       293.1499934       293.1499969            293.15            293.15            293.15            293.15            293.15            293.15            293.15
  0.0003250351347            293.15       293.1500001       293.1500466       293.1700562       297.1114892       293.1608153       293.1500176            293.15        293.149992       293.1499962            293.15            293.15            293.15            293.15            293.15            293.15            293.15
  0.0003911802278            293.15       293.1500002       293.1501152       293.1835373       297.8814278       293.1683598       293.1500439            293.15       293.1499904       293.1499953            293.15            293.15            293.15            293.15            293.15            293.15            293.15
  0.0004705543394            293.15       293.1500007       293.1502816       293.2054058       298.7772815       293.1807386       293.1501086            293.15       293.1499885       293.1499943            293.15            293.15            293.15            293.15            293.15            293.15            293.15
  0.0005658032734            293.15       293.1500023       293.1506773       293.2398056       299.8077915       293.2004896       293.1502653            293.15       293.1499862       293.1499928            293.15            293.15            293.15            293.15            293.15            293.15            293.15
  0.0006799700095            293.15       293.1500081       293.1515936       293.2913595       300.9776395        293.230707       293.1506378       293.1500004       293.1499835        293.149991       293.1499999            293.15            293.15            293.15            293.15            293.15            293.15
  0.0008169700928            293.15       293.1500274       293.1536428       293.3633355         302.29629       293.2742628       293.1515011       293.1500021       293.1499804       293.1499885       293.1499998            293.15            293.15            293.15            293.15            293.15            293.15
  0.0009814618316       293.1500003       293.1500902       293.1580043       293.4532436       303.7913418       293.3315041       293.1534276       293.1500101       293.1499768       293.1499852       293.1499996            293.15            293.15            293.15            293.15            293.15            293.15
   0.001179117227       293.1500013        293.150285        293.166654       293.5467527       305.5443586        293.396204       293.1574948       293.1500441        293.149973       293.1499808       293.1499991            293.15            293.15            293.15            293.15            293.15            293.15
   0.001416111804       293.1500067       293.1508506        293.182104       293.6147318       307.7319697       293.4509992       293.1653768       293.1501747       293.1499703       293.1499749       293.1499981       293.1499999            293.15            293.15            293.15            293.15            293.15
   0.001666544217       293.1500258         293.15211       293.2031294       293.6280077       310.2785127       293.4698256       293.1772057       293.1505396       293.1499738        293.149968       293.1499963       293.1499999            293.15            293.15            293.15            293.15            293.15
   0.001916976631       293.1500776       293.1543628       293.2259326       293.6036965       313.0875801       293.4481689       293.1916236       293.1513251       293.1499932       293.1499606       293.1499935       293.1499996            293.15            293.15            293.15            293.15            293.15
   0.002167409044       293.1501965       293.1578764        293.246296       293.5736597       316.1137786       293.3973123       293.2066586       293.1527679       293.1500477       293.1499533       293.1499896       293.1499992            293.15            293.15            293.15            293.15            293.15
   0.002417841458       293.1504382       293.1627668       293.2601205       293.5614963       319.3119832       293.3351631       293.2198145       293.1551093       293.1501703       293.1499472       293.1499842       293.1499985            293.15            293.15            293.15            293.15            293.15
   0.002668273871       293.1508828        293.168918       293.2647838       293.5803813       322.6586709       293.2786166       293.2287446       293.1585321       293.1504115       293.1499451       293.1499772       293.1499974       293.1499999            293.15            293.15            293.15            293.15
   0.002918706284       293.1516348       293.1759469       293.2599126       293.6305174         326.14103       293.2372733       293.2319035       293.1630906       293.1508404       293.1499525       293.1499687       293.1499955       293.1499998            293.15            293.15            293.15            293.15
   0.003169138698       293.1528166       293.1832326       293.2473152        293.705445       329.7512117       293.2133318       293.2289346       293.1686554       293.1515438       293.1499777       293.1499592       293.1499927       293.1499996            293.15            293.15            293.15            293.15
   0.003419571111       293.1545571       293.1899901       293.2301392       293.7998415       333.4797733       293.2062818       293.2206378       293.1748898       293.1526191       293.1500341       293.1499498       293.1499887       293.1499992            293.15            293.15            293.15            293.15
   0.003670003524       293.1569738       293.1953941        293.211911       293.9097403        337.315163       293.2132722       293.2086748       293.1812604       293.1541624       293.1501416       293.1499426       293.1499832       293.1499985       293.1499999            293.15            293.15            293.15
   0.003920435938       293.1601505       293.1987336       293.1958015       294.0318124       341.2530211       293.2298517       293.1951172       293.1870834       293.1562509       293.1503277       293.1499414       293.1499762       293.1499974       293.1499998            293.15            293.15            293.15
   0.004170868351       293.1641123       293.1995409       293.1838542       294.1619493       345.3006519       293.2510474       293.1818874       293.1916181       293.1589228       293.1506283       293.1499516        293.149968       293.1499957       293.1499997            293.15            293.15            293.15
   0.004421300765       293.1688009       293.1976719       293.1767196       294.2963201       349.4730023       293.2724045       293.1704779       293.1941955       293.1621548       293.1510889       293.1499793       293.1499592       293.1499932       293.1499994            293.15            293.15            293.15
   0.004671733178       293.1740541       293.1933359       293.1741727       294.4326844        353.784303       293.2904953       293.1618789       293.1943452       293.1658421       293.1517609       293.1500339       293.1499513       293.1499896       293.1499989       293.1499999            293.15            293.15
   0.004922165591       293.1796008       293.1870885       293.1752797       294.5712191       358.2435625        293.303702       293.1564446       293.1918986       293.1697838       293.1526983       293.1501276       293.1499465       293.1499849       293.1499982       293.1499999            293.15            293.15
   0.005172598005       293.1850675       293.1797956       293.1785767       294.7131457       362.8572084       293.3104136       293.1538732       293.1870508        293.173681       293.1539512       293.1502765       293.1499484       293.1499791       293.1499971       293.1499998            293.15            293.15
   0.005423030418       293.1900117       293.1724509       293.1825498       294.8625143       367.6253496       293.3134332       293.1534113       293.1803532        293.177158       293.1555572       293.1505028       293.1499607       293.1499723       293.1499956       293.1499997            293.15            293.15
   0.005673462831       293.1939815        293.165917       293.1861957       295.0213951       372.5461777       293.3175463       293.1542203       293.1726319       293.1798071       293.1575295       293.1508336       293.1499887       293.1499653       293.1499933       293.1499994            293.15            293.15
   0.005923895245       293.1965918       293.1608282       293.1892067       295.1912706       377.6217726       293.3232776       293.1556594       293.1648432       293.1812536       293.1598449       293.1513004       293.1500382       293.1499592       293.1499904        293.149999       293.1499999            293.15
   0.006174327658       293.1975968       293.1575877       293.1918258       295.3727389       382.8551234       293.3298979       293.1574158       293.1578743       293.1812299       293.1624317       293.1519385       293.1501168       293.1499559       293.1499867       293.1499984       293.1499999            293.15
   0.006424760072       293.1969389       293.1563808       293.1945792       295.5656293       388.2417149       293.3437652       293.1594939       293.1523887       293.1796403       293.1651619       293.1527835       293.1502349       293.1499578       293.1499823       293.1499975       293.1499998            293.15
   0.006675192485       293.1947601        293.157212       293.1980108       295.7692879       393.7872776       293.3623518       293.1621065        293.148785       293.1765989        293.167852       293.1538677       293.1504058        293.149968       293.1499776       293.1499963       293.1499996            293.15
   0.006925624898       293.1913735       293.1599715         293.20249       295.9831553       399.4976108       293.3829531       293.1654968       293.1472204       293.1724323       293.1702761       293.1552133       293.1506466       293.1499899        293.149973       293.1499946       293.1499994            293.15
   0.007176057312       293.1872436       293.1644756       293.2081245       296.2071556        405.376606       293.4048609       293.1698149       293.1476241       293.1676513       293.1721929       293.1568255       293.1509777        293.150027       293.1499696       293.1499924        293.149999       293.1499999
   0.007426489725       293.1828884       293.1704802       293.2147719       296.4415578       411.4264255       293.4278837       293.1750439       293.1497766       293.1628791       293.1733844       293.1586847       293.1514224       293.1500845       293.1499687       293.1499897       293.1499985       293.1499999
   0.007676922139       293.1787744       293.1777498       293.2221212       296.6868637       417.6488235       293.4522297       293.1809834       293.1534667       293.1587594       293.1736974       293.1607402       293.1520061       293.1501686       293.1499722       293.1499865       293.1499978       293.1499998
   0.007927354552       293.1753284       293.1859837       293.2297984       296.9434721       424.0465758       293.4781119       293.1873378       293.1584899       293.1558791       293.1730831       293.1629057        293.152754       293.1502881       293.1499821        293.149983       293.1499968       293.1499997
   0.008177786965        293.172951       293.1948221       293.2374187       297.2117937       430.6236259       293.5055391       293.1937395       293.1645849       293.1546943       293.1716235       293.1650626       293.1536886       293.1504549       293.1500009       293.1499797       293.1499955       293.1499995
   0.008428219379       293.1720466       293.2037327       293.2445504       297.4915507       437.3810579       293.5341351       293.1997036       293.1713934       293.1554665        293.169543       293.1670666       293.1548243       293.1506829       293.1500317       293.1499771       293.1499938       293.1499993
   0.008678651792       293.1729731       293.2120533       293.2507654       297.7828488       444.3222374       293.5635859       293.2046944       293.1785137       293.1582517       293.1671887       293.1687692       293.1561647       293.1509892       293.1500779       293.1499764       293.1499918       293.1499989
   0.008929084205       293.1759524       293.2190955       293.2556566       298.0858059       451.4505176       293.5935775       293.2082301       293.1854813       293.1629094       293.1649982       293.1700405       293.1576974       293.1513933       293.1501446       293.1499787       293.1499894       293.1499983
   0.009179516619       293.1811171        293.224222       293.2588326        298.400699       458.7697613        293.623947       293.2099173       293.1917652       293.1691199       293.1634399       293.1707957       293.1593904       293.1519163       293.1502383       293.1499857        293.149987       293.1499976
   0.009429949032       293.1882733       293.2270086        293.259995       298.7280357        466.284557       293.6547525       293.2095651       293.1968117       293.1764021        293.162937       293.1710199       293.1611911       293.1525797       293.1503676       293.1499993       293.1499848       293.1499966
   0.009680381446       293.1969029       293.2272678       293.2590348       299.0685681       474.0002532        293.686291       293.2072232       293.2001197       293.1841379        293.163797       293.1707801       293.1630277       293.1534025        293.150543       293.1500214       293.1499832       293.1499954
   0.009930813859       293.2062051       293.2250903       293.2560936       299.4232737       481.9228926       293.7190814        293.203178       293.2013206       293.1916045       293.1661604       293.1702266       293.1648147       293.1543992       293.1507775       293.1500546       293.1499831       293.1499939
    0.01018124627       293.2151794       293.2209166        293.251577       299.7933009        490.059119       293.7538352       293.1979325       293.2003323         293.19803       293.1699615       293.1695829       293.1664631       293.1555764       293.1510857       293.1501023       293.1499855       293.1499921
    0.01043167869       293.2227402       293.2154639       293.2461214       300.1799104       498.4161383       293.7914081       293.1921651       293.1973325       293.2026781       293.1749011       293.1691155       293.1678923       293.1569296       293.1514838       293.1501695       293.1499914       293.1499902
     0.0106821111       293.2278488       293.2096172       293.2405235       300.5843743       506.9993388         293.83272       293.1866611        293.192769        293.204951       293.1804547       293.1690865       293.1690439       293.1584406       293.1519889       293.1502626       293.1500023       293.1499884
    0.01093254351       293.2296716       293.2043087       293.2356457        301.007891       515.8135312       293.8786488       293.1822238       293.1873064       293.2044875       293.1859238       293.1696997       293.1698914       293.1600757       293.1526178       293.1503897       293.1500196       293.1499869
    0.01118297593       293.2277079       293.2003776       293.2323084        301.451506       524.8636754       293.9299106       293.1795755       293.1817358       293.2012399       293.1905225        293.171049       293.1704477       293.1617853       293.1533851       293.1505604       293.1500454       293.1499863
    0.01143340834       293.2219462       293.1984416       293.2311788       301.9160597       534.1547272       293.9869721       293.1792592       293.1768585       293.1955609        293.193485        293.173078        293.170764       293.1635061       293.1543015       293.1507861       293.1500825       293.1499874
    0.01168384075       293.2129784       293.1987987       293.2326731       302.4021854       543.6913669        294.050234       293.1815592       293.1733652       293.1881564         293.19422         293.17557       293.1709209       293.1651649       293.1553716       293.1510796       293.1501349       293.1499909
    0.01193427317       293.2021325       293.2013775       293.2368719       302.9103495       553.4778798       294.1194321       293.1864371       293.1717341       293.1799947       293.1924018       293.1781551       293.1710101        293.166686       293.1565915       293.1514552       293.1502077       293.1499982
    0.01218470558        293.190982       293.2058047       293.2434855       303.4407628       563.5174942       294.1941185       293.1935106       293.1721669       293.1721777       293.1880497       293.1803562       293.1711107       293.1679979       293.1579465       293.1519276       293.1503071       293.1500101
    0.01243513799       293.1812012       293.2114778       293.2519099       303.9938752       573.8144358       294.2738341        293.202111       293.1745635       293.1657836       293.1815643       293.1816671       293.1712656       293.1690418       293.1594099       293.1525115       293.1504406       293.1500281
    0.01268557041        293.174434       293.2176777       293.2613183       304.5701347       584.3723217       294.3580702       293.2114022       293.1785442       293.1617088       293.1737146       293.1816464       293.1714611       293.1697763       293.1609419       293.1532199       293.1506171        293.150054
    0.01293600282       293.1720206       293.2237238       293.2707894         305.17008       595.1944279       294.4463538        293.220537       293.1836057        293.160543       293.1655766       293.1800102       293.1716162       293.1701797       293.1624896       293.1540624       293.1508468       293.1500908
    0.01318643523       293.1747301        293.229124       293.2794421       305.7943854       606.2837016       294.5383071       293.2287869       293.1892536       293.1625045       293.1583533       293.1767076       293.1715895       293.1702485       293.1639894       293.1550437       293.1511411       293.1501426
    0.01343686765       293.1826333       293.2336708       293.2865695        306.443871       617.6424106       294.6336859       293.2356438       293.1950926       293.1674356       293.1532203       293.1719704       293.1712053       293.1699938       293.1653698       293.1561612        293.151512       293.1502141
    0.01368730006       293.1950101       293.2374803       293.2917336       307.1194833       629.2708653       294.7323963        293.240884       293.2008595       293.1748883       293.1511319       293.1663126       293.1702845       293.1694348        293.166557       293.1574021       293.1519721        293.150311
    0.01393773247       293.2107005       293.2409563       293.2948487       307.8221956       641.1640651       294.8344906       293.2445816       293.2064729       293.1842267        293.152646       293.1604911        293.168705        293.168593       293.1674795       293.1587426       293.1525331       293.1504403
    0.01418816489       293.2280709       293.2446905       293.2961642       308.5527481       653.2991473       294.9401167       293.2470725       293.2119943       293.1946743       293.1578044       293.1554155       293.1664228       293.1674869       293.1680743       293.1601453        293.153205       293.1506101
     0.0144385973       293.2453132       293.2493095       293.2962199       309.3101524       665.5501059       295.0492926       293.2488759       293.2175906       293.2053692        293.166079       293.1520151       293.1635336       293.1661315       293.1682917       293.1615597       293.1539944       293.1508295
    0.01468902971        293.260816       293.2552829       293.2957295        310.066915        675.664812       295.1593662       293.2505736       293.2234565       293.2154627       293.1765034       293.1510652       293.1602788        293.164544       293.1680998       293.1629221       293.1549026        293.151109
    0.01493946213       293.2734439       293.2627765       293.2953408       310.7381371       678.1481713       295.2588185       293.2526291       293.2297147       293.2242171       293.1878197       293.1530676       293.1570474       293.1627549       293.1674881       293.1641592       293.1559241       293.1514597
    0.01518989454       293.2826583       293.2715435       293.2951999        311.345992        680.286033       295.3375451       293.2551902       293.2363183       293.2311017       293.1987358       293.1580931       293.1543374       293.1608156       293.1664701       293.1651915       293.1570445       293.1518926
    0.01544032695        293.288482       293.2809624       293.2948792       311.9226182       682.9594482       295.3951736       293.2579572       293.2429822       293.2358722        293.208152       293.1657702       293.1526835       293.1588105       293.1650847       293.1659405       293.1582384       293.1524183
    0.01569075937       293.2913441        293.290127       293.2934456       312.5055145       685.8932587       295.4422055       293.2601744       293.2491627       293.2386018       293.2153632       293.1752882       293.1525691       293.1568747       293.1633964       293.1663355       293.1594687       293.1530455
    0.01594119178       293.2918909       293.2979573        293.289844       313.1183728        688.854921       295.4940292       293.2608009       293.2541776       293.2395872       293.2200226       293.1855818       293.1543472       293.1551851       293.1614956       293.1663213       293.1606861       293.1537797
    0.01619162419       293.2907902       293.3033921       293.2834529       313.7677979        691.750703        295.563003       293.2588393       293.2572596       293.2392253       293.2221884       293.1954775       293.1581553       293.1539611       293.1594956       293.1658654       293.1618305       293.1546218
    0.01644205661       293.2885999       293.3055778       293.2744942       314.4464494       694.5952424       295.6534625       293.2536767       293.2577231       293.2378357       293.2221795       293.2039062       293.1638519       293.1534429       293.1575299       293.1649642       293.1628335       293.1555657