# Probe 0 (2.4 0 1.5)
#           Probe                 0
#            Time
    1.1999904e-06      0.9999683232
  2.639965056e-06       0.999930307
  4.367944597e-06      0.9998846792
  6.441505713e-06      0.9998299138
   8.92973777e-06      0.9997641782
  1.191552707e-05      0.9996852715
  1.549838863e-05      0.9995905475
  1.979776087e-05      0.9994768255
  2.495674128e-05      0.9993402871
  3.114713435e-05      0.9991763373
  3.857523794e-05      0.9989794432
  4.748896225e-05      0.9987429342
  5.818543142e-05       0.998458783
  7.102064463e-05       0.998117326
  8.642131685e-05      0.9977069136
  0.0001049009832       0.997213432
  0.0001270765827       0.996619789
  0.0001536896689      0.9959052431
  0.0001856219625      0.9950448395
  0.0002239407148      0.9940079771
  0.0002699019884      0.9927580166
  0.0003250351347      0.9912495514
  0.0003911802278      0.9894267334
  0.0004705543394      0.9872204869
  0.0005658032734      0.9845456018
  0.0006799700095       0.981299346
  0.0008169700928      0.9773441061
  0.0009814618316      0.9725042314
   0.001179117227      0.9665478312
   0.001416111804      0.9591909914
   0.001666544217      0.9511681595
   0.001916976631      0.9429211957
   0.002167409044      0.9344545427
   0.002417841458      0.9257459653
   0.002668273871      0.9167741275
   0.002918706284      0.9075238824
   0.003169138698      0.8979875811
   0.003419571111      0.8881628119
   0.003670003524      0.8780461666
   0.003920435938      0.8676289401
   0.004170868351        0.85689894
   0.004421300765      0.8458447023
   0.004671733178      0.8344575449
   0.004922165591      0.8227301897
   0.005172598005      0.8106544575
   0.005423030418      0.7982207615
   0.005673462831       0.785419094
   0.005923895245      0.7722396819
   0.006174327658      0.7586727932
   0.006424760072      0.7447083713
   0.006675192485      0.7303360769
   0.006925624898       0.715545581
   0.007176057312      0.7003267015
   0.007426489725      0.6846693417
   0.007676922139      0.6685630982
   0.007927354552      0.6519974918
   0.008177786965      0.6349621124
   0.008428219379        0.61744682
   0.008678651792      0.5994411979
   0.008929084205      0.5809346891
   0.009179516619      0.5619166783
   0.009429949032      0.5423765671
   0.009680381446        0.52230376
   0.009930813859       0.501687626
    0.01018124627      0.4805174502
    0.01043167869      0.4587824389
     0.0106821111      0.4364717691
    0.01093254351      0.4135746803
    0.01118297593      0.3900805562
    0.01143340834      0.3659789494
    0.01168384075      0.3412596819
    0.01193427317      0.3159129101
    0.01218470558      0.2899293225
    0.01243513799      0.2632999264
    0.01268557041      0.2360166039
    0.01293600282      0.2080725071
    0.01318643523      0.1794628358
    0.01343686765      0.1501863992
    0.01368730006      0.1202491745
    0.01393773247     0.08967387053
    0.01418816489     0.05853501336
     0.0144385973     0.02719848306
    0.01468902971    0.002191066021
    0.01493946213  -0.0001986981297
    0.01518989454   4.797829492e-05
    0.01544032695   0.0001556240204
    0.01569075937     0.00016068893
    0.01594119178   0.0001346392276
    0.01619162419   0.0001121215205
    0.01644205661   0.0001047607167
    0.01669248902   0.0001055711473
    0.01694292143   0.0001094684279
    0.01719335385   0.0001132921189
    0.01744378626   0.0001139239128
    0.01769421867   0.0001121487537
    0.01794465109   0.0001099860388
     0.0181950835    0.000108398275
    0.01844551591   0.0001069793689
    0.01869594833    0.000105169563
    0.01894638074    0.000103073662
    0.01919681315   0.0001011232791
    0.01944724557   9.936812174e-05
    0.01969767798   9.746742099e-05
    0.01994811039   9.522659687e-05
    0.02019854281   9.287624469e-05
    0.02044897522   9.083284538e-05
    0.02069940763   8.933054697e-05
    0.02094984005   8.828719639e-05
    0.02120027246   8.750283785e-05
    0.02145070487   8.685091704e-05
    0.02170113729   8.630990249e-05
     0.0219515697   8.587393296e-05
    0.02220200211   8.551565133e-05
    0.02245243453   8.525345416e-05
    0.02270286694   8.500450165e-05
    0.02295329935   8.465949627e-05
    0.02320373177   8.405521033e-05
    0.02345416418   8.303655172e-05
    0.02370459659   8.152000254e-05
    0.02395502901   7.960900149e-05
    0.02420546142   7.749895356e-05
    0.02445589384   7.536916076e-05
    0.02470632625   7.328796309e-05
    0.02495675866   7.130951027e-05
    0.02520719108   6.945157287e-05
    0.02545762349   6.769130318e-05
     0.0257080559   6.602281651e-05
    0.02595848832   6.450560033e-05
    0.02620892073   6.320596398e-05
    0.02645935314    6.21020788e-05
    0.02670978556   6.107932142e-05
    0.02696021797   6.002115067e-05
    0.02721065038   5.889070112e-05
     0.0274610828   5.772310343e-05
    0.02771151521   5.653666002e-05
    0.02796194762   5.532949916e-05
    0.02821238004   5.408726231e-05
    0.02846281245   5.289564285e-05
    0.02871324486   5.203486468e-05
    0.02896367728   5.150021071e-05
    0.02921410969   4.833903072e-05
     0.0294645421   4.605165763e-05
    0.02971497452   4.479076199e-05
    0.02996540693   4.616444345e-05
    0.03021583934   4.728633539e-05
    0.03046627176   4.661133646e-05
    0.03071670417   4.104334526e-05
    0.03096713658   4.321918604e-05
      0.031217569   4.034121183e-05
    0.03146800141   4.152892214e-05
    0.03171843382   3.850544478e-05
    0.03196886624   3.739387718e-05
    0.03221929865   3.608793413e-05
    0.03246973106    3.44125829e-05
    0.03272016348   3.332356781e-05
    0.03297059589   3.273801836e-05
     0.0332210283   3.290004343e-05
    0.03347146072   3.304228533e-05
    0.03372189313   3.216304725e-05
    0.03397232554   3.076419067e-05
    0.03422275796   2.948130928e-05
    0.03447319037     2.8904046e-05
    0.03472362278   2.902555179e-05
     0.0349740552   2.849217217e-05
    0.03522448761    2.73118355e-05
    0.03547492002   2.630164815e-05
    0.03572535244   2.558823483e-05
    0.03597578485    2.53209706e-05
    0.03622621726   2.507906164e-05
    0.03647664968   2.461403986e-05
    0.03672708209   2.394157244e-05
     0.0369775145   2.320440858e-05
    0.03722794692   2.251399305e-05
    0.03747837933   2.185887087e-05
    0.03772881174   2.116724744e-05
    0.03797924416   2.041275297e-05
    0.03822967657    0.000470899214
    0.03848010898    0.001076244845
     0.0387305414    0.001727097882
    0.03898097381    0.002383575166
    0.03923140622    0.003039627139
    0.03948183864    0.003693119258
    0.03973227105    0.004341834654
    0.03998270346    0.004990174457
    0.04023313588     0.00566089279
    0.04048356829    0.006314011451
     0.0407340007    0.006948690185
    0.04098443312    0.007577716048
    0.04123486553     0.00817539451
    0.04148529795    0.008750516718
    0.04173573036    0.009303384698
    0.04198616277    0.009834653856
    0.04223659519     0.01034233065
     0.0424870276     0.01082992885
    0.04273746001     0.01130330976
    0.04298789243     0.01176698085
    0.04323832484     0.01223758981
    0.04348875725     0.01273366744
    0.04373918967     0.01325088566
    0.04398962208     0.01378573493
    0.04424005449     0.01432529574
    0.04449048691     0.01486785447
    0.04474091932     0.01542148443
    0.04499135173     0.01598637854
    0.04524178415     0.01655087155
    0.04549221656     0.01710698515
    0.04574264897     0.01765572789
    0.04599308139     0.01820394808
     0.0462435138     0.01875229756
    0.04649394621     0.01929885441
    0.04674437863     0.01983804565
    0.04699481104     0.02036742569
    0.04724524345     0.02088924369
    0.04749567587     0.02140342243
    0.04774610828     0.02190875424
    0.04799654069      0.0224029541
    0.04824697311     0.02288497069
    0.04849740552     0.02335355961
    0.04874783793     0.02381153753
    0.04899827035     0.02426130436
    0.04924870276     0.02470783135
    0.04949913517     0.02514746997
    0.04974956759     0.02558374188
             0.05      0.0260173001
          0.05025        0.02644709
           0.0505     0.02687317256
          0.05075     0.02729408994
            0.051     0.02770942489
          0.05125     0.02811817147
           0.0515     0.02851882511
          0.05175     0.02891041776
            0.052     0.02929547394
          0.05225     0.02967820557
           0.0525      0.0300606695
          0.05275     0.03044211664
            0.053     0.03082053305
          0.05325     0.03119664933
           0.0535        0.03157198
          0.05375      0.0319416493
            0.054     0.03229915574
          0.05425     0.03264470432
           0.0545     0.03298540649
          0.05475     0.03332922902
            0.055     0.03367954742
          0.05525      0.0340379769
           0.0555     0.03440275213
          0.05575      0.0347682553
            0.056     0.03512829943
          0.05625     0.03547976925
           0.0565     0.03582963017
          0.05675     0.03617107528
            0.057     0.03650661998
          0.05725     0.03683452474
           0.0575     0.03714698136
          0.05775     0.03744998044
            0.058     0.03774596505
          0.05825     0.03803920775
           0.0585     0.03833033864
          0.05875      0.0386196586
            0.059     0.03890474014
          0.05925     0.03919086696
           0.0595     0.03947817141
          0.05975     0.03976510953
             0.06     0.04004902395
          0.06025     0.04032892738
           0.0605     0.04060465593
          0.06075     0.04087559351
            0.061     0.04114324733
          0.06125      0.0414069983
           0.0615     0.04167327923
          0.06175     0.04194937968
            0.062     0.04223368022
          0.06225     0.04251177146
           0.0625      0.0427760095
          0.06275     0.04303565547
            0.063     0.04329646182
          0.06325     0.04355892738
           0.0635     0.04382106251
          0.06375     0.04407704348
            0.064     0.04432578819
          0.06425     0.04456778034
           0.0645     0.04480450353
          0.06475     0.04503882952
            0.065      0.0452723645
          0.06525     0.04550550736
           0.0655     0.04573684133
          0.06575     0.04596542529
            0.066     0.04619119522
          0.06625     0.04641534388
           0.0665     0.04663833247
          0.06675     0.04685975774
            0.067      0.0470792568
          0.06725      0.0472969179
           0.0675     0.04751262771
          0.06775     0.04772617825
            0.068     0.04793714564
          0.06825     0.04814508356
           0.0685     0.04834983308
          0.06875     0.04855160052
            0.069     0.04875077211
          0.06925     0.04894762009
           0.0695     0.04914216661
          0.06975     0.04933435864
             0.07     0.04952426746
          0.07025     0.04971205241
           0.0705     0.04989780784
          0.07075     0.05008167238
            0.071     0.05026381887
          0.07125     0.05044460819
           0.0715      0.0506245274
          0.07175     0.05080387302
            0.072     0.05098245672
          0.07225     0.05115978727
           0.0725     0.05133560969
          0.07275      0.0515102081
            0.073     0.05168426879
          0.07325       0.051858133
           0.0735     0.05203146284
          0.07375     0.05220354105
            0.074     0.05237390054
          0.07425     0.05254261554
           0.0745     0.05270982756
          0.07475     0.05287564268
            0.075     0.05303985146
          0.07525       0.053201945
           0.0755     0.05336128101
          0.07575     0.05351732657
            0.076     0.05366994378
          0.07625     0.05381957409
           0.0765     0.05396702621
          0.07675     0.05411322497
            0.077     0.05425892959
          0.07725        0.05440476
           0.0775     0.05455117164
          0.07775     0.05469863543
    0.07799722222     0.05484523797
    0.07824444444      0.0549914377
    0.07849166667     0.05513671651
    0.07873607955     0.05528015706
    0.07898049242     0.05542388108
     0.0792249053      0.0555676904
    0.07946647617     0.05570958787
    0.07970804704     0.05585090092
     0.0799467759     0.05598984596
    0.08018550476     0.05612802976
    0.08042139161     0.05626380176
    0.08065727845     0.05639839741
    0.08089032329     0.05652984236
    0.08112336813     0.05665995794
    0.08135357096     0.05678767827
    0.08158096643     0.05691362866
    0.08180836191     0.05703974101
    0.08203295003     0.05716441389
    0.08225753816     0.05728914927
    0.08247931893     0.05741223079
    0.08269832744     0.05753355386
    0.08291733596      0.0576546682
    0.08313357221     0.05777414774
    0.08334980847     0.05789373723
    0.08356327246     0.05801204357
    0.08377673645     0.05813061599
    0.08399020045     0.05824910543
    0.08420366444     0.05836709057
    0.08441428225     0.05848285848
    0.08462490006     0.05859815166
    0.08483551786     0.05871317877
    0.08504613567     0.05882809144
    0.08525382823     0.05894135658
    0.08546152079     0.05905460726
    0.08566921335     0.05916784084
    0.08587393888     0.05927944165
     0.0860786644     0.05939100677
    0.08628338992     0.05950254658
    0.08648811545     0.05961407557
    0.08668978536     0.05972392789
    0.08689145528      0.0598338193
     0.0870931252     0.05994374858
    0.08729479512     0.06005349513
    0.08749331395     0.06016096788
    0.08769183277     0.06026760481
     0.0878903516     0.06037349044
    0.08808887043     0.06047904303
    0.08828413484     0.06058295391
    0.08847939926     0.06068709422
    0.08867466368     0.06079139932
    0.08886661854     0.06089380606
    0.08905857339     0.06099596328
    0.08925052824     0.06109798918
    0.08944248309     0.06120012415
    0.08963101018     0.06130076567
    0.08981953727     0.06140183517
    0.09000806436     0.06150328381
    0.09019659145     0.06160485704
    0.09038156142     0.06170430638
    0.09056653139     0.06180335568
    0.09075150136      0.0619022291
    0.09093647134     0.06200115584
    0.09112144131     0.06210025434
    0.09130263638     0.06219740098
    0.09148383146      0.0622943049
    0.09166502653     0.06239060829
    0.09184622161     0.06248603837
    0.09202741669     0.06258062021
    0.09220861176     0.06267462659
    0.09238568877     0.06276644964
    0.09256276577     0.06285865121
    0.09273984278     0.06295135211
    0.09291691978     0.06304426809
    0.09309399679     0.06313687716
    0.09327107379     0.06322874598
    0.09344361036     0.06331762222
    0.09361614693     0.06340587409
     0.0937886835     0.06349358336
    0.09396122007      0.0635810601
    0.09413375664      0.0636684685
    0.09430629321     0.06375588403
    0.09447375517     0.06384080807
    0.09464121714         0.0639259
     0.0948086791     0.06401123469
    0.09497614107      0.0640968361
    0.09514360303     0.06418263412
      0.095311065     0.06426850475
    0.09547852696      0.0643542919
    0.09564000814     0.06443678559
    0.09580148932     0.06451886934
     0.0959629705     0.06460043962
    0.09612445168     0.06468162409
    0.09628593286     0.06476258197
    0.09644741404     0.06484341344
    0.09660889522     0.06492412807
     0.0967703764     0.06500470544
    0.09693185758     0.06508515928
    0.09709333876     0.06516540848
    0.09725481994     0.06524527384
    0.09741630112     0.06532452407
     0.0975777823      0.0654028053
    0.09773926348     0.06547984789
    0.09790074466     0.06555568368
    0.09806222584     0.06563075526
    0.09822370702     0.06570554079
     0.0983851882     0.06578032337
    0.09854666938      0.0658550594
    0.09870815056     0.06592945375
    0.09886963174      0.0660032312
    0.09903111292     0.06607618898
     0.0991925941     0.06614832408
    0.09935407528     0.06621981607
    0.09951555646     0.06629092365
    0.09967703764     0.06636184069
    0.09983851882     0.06643260706
              0.1      0.0665031065
     0.1001497006     0.06656806718
      0.100298953     0.06663228634
     0.1004477585     0.06669570113
     0.1005961185     0.06675838991
     0.1007435928     0.06682039116
     0.1008906269     0.06688214889
      0.101037222     0.06694382024
     0.1011833795     0.06700537025
     0.1013295371     0.06706678049
      0.101475257      0.0671276143
     0.1016205407     0.06718770328
     0.1017653894     0.06724701931
     0.1019098044     0.06730564532
     0.1020542194     0.06736386552
     0.1021982007     0.06742158079
     0.1023417497     0.06747883804
     0.1024848675     0.06753568949
     0.1026275556     0.06759223166
     0.1027698152     0.06764849842
     0.1029116476     0.06770441569
      0.103053054     0.06775990183
     0.1031936138     0.06781470755
     0.1033337526     0.06786894033
      0.103473472     0.06792260505
     0.1036127729     0.06797920956
     0.1037516568     0.06803647951
     0.1038901249       0.068093637
     0.1040281785     0.06815039028
     0.1041658186     0.06820665455
     0.1043030467     0.06826248714
      0.104439864     0.06831803259
     0.1045762715     0.06837341976
     0.1047122707     0.06842871157
     0.1048478627     0.06848388584
     0.1049830488     0.06853883963
     0.1051178301     0.06859343458
     0.1052522078     0.06864753988
     0.1053861833     0.06870110313
     0.1055197576     0.06875414915
     0.1056529319     0.06880675418
     0.1057857076     0.06885900219
     0.1059180857     0.06891095043
     0.1060500675     0.06896262921
     0.1061816541      0.0690140637
     0.1063128468     0.06906529614
     0.1064436466     0.06911638683
     0.1065740549     0.06916738428
     0.1067036846     0.06921813179
     0.1068329273     0.06926869832
       0.10696217     0.06931907504
     0.1070910258     0.06936892643
     0.1072194958     0.06941812076
     0.1073475811     0.06946664273
      0.107475283     0.06951460957
     0.1076029848     0.06956236889
     0.1077303032     0.06960998223
     0.1078572392     0.06965757987
     0.1079837941     0.06970517631
     0.1081103489     0.06975282046
     0.1082365225     0.06980021746
     0.1083623161     0.06984721299
     0.1084881098     0.06989383362
     0.1086135233     0.06993989456
      0.108738558     0.06998541197
     0.1088632149     0.07003044583
     0.1089874952     0.07007507922
     0.1091114001     0.07011939542
     0.1092353049     0.07016359826
     0.1093588343     0.07020757982
     0.1094819894     0.07025132456
     0.1096051444     0.07029491258
     0.1097279251     0.07033813401
     0.1098503326     0.07038091358
     0.1099723681     0.07042321272
     0.1100944036     0.07046518649
      0.110216067      0.0705068058
     0.1103373595     0.07054821594
     0.1104582821      0.0705895594
     0.1105788362     0.07063092556
     0.1106990226       0.070672328
     0.1108188427     0.07071371107
     0.1109386627     0.07075511176
     0.1110581164     0.07079632716
     0.1111772047     0.07083732686
     0.1112959288     0.07087812959
      0.111414653     0.07091890698
     0.1115330129     0.07095957875
     0.1116513729     0.07100029071
     0.1117693687      0.0710409073
     0.1118870014     0.07108139816
     0.1120046341     0.07112185913
     0.1121219038     0.07116216075
     0.1122388115     0.07120233585
     0.1123557192     0.07124257135
     0.1124722649     0.07128280973
     0.1125884499     0.07132309071
     0.1127046348      0.0713635274
     0.1128204589      0.0714039273
      0.112936283     0.07144432047
     0.1130517463     0.07148450308
     0.1131672096     0.07152458025
     0.1132823121     0.07156447549
     0.1133974146     0.07160440898
     0.1135121562     0.07164434946
     0.1136268978     0.07168446721
     0.1137412787     0.07172460513
     0.1138552998     0.07176465892
     0.1139693209     0.07180461026
     0.1140829824      0.0718441923
     0.1141966438     0.07188343141
     0.1143099456     0.07192216589
     0.1144228888     0.07196042086
      0.114535832     0.07199838663
     0.1146484167     0.07203603621
     0.1147610013     0.07207358831
     0.1148732275     0.07211100963
     0.1149850962     0.07214836053
     0.1150966086     0.07218566499
      0.115208121     0.07222302737
     0.1153192772     0.07226028278
     0.1154300782     0.07229737488
     0.1155408792     0.07233437626
     0.1156513251     0.07237114983
     0.1157614171      0.0724077111
     0.1158711561     0.07244409696
     0.1159808951     0.07248046962
     0.1160902813     0.07251674092
     0.1161996675     0.07255302993
     0.1163087009     0.07258919653
     0.1164173825     0.07262520797
     0.1165260641     0.07266115697
      0.116634394     0.07269692667
     0.1167423733     0.07273254126
     0.1168500031     0.07276803671
      0.116957633     0.07280355442
     0.1170649134      0.0728389763
     0.1171718455     0.07287426582
     0.1172787776     0.07290947959
     0.1173853614     0.07294444877
      0.117491598     0.07297915806
     0.1175978346     0.07301373835
      0.117703724     0.07304040809
     0.1178096135     0.07306460364
     0.1179151557     0.07309587516
      0.118020698     0.07312970703
      0.118125893     0.07316444005
     0.1182307421     0.07319950371
     0.1183355911      0.0732347563
     0.1184400941     0.07326203046
     0.1185442522     0.07329455562
     0.1186484103     0.07332886707
     0.1187522235     0.07336370779
     0.1188560367      0.0733988468
     0.1189595051     0.07343406359
     0.1190629734     0.07346942968
     0.1191660968     0.07350479228
     0.1192692202     0.07354025004
     0.1193723436     0.07357580997
      0.119475121     0.07361138461
     0.1195778984     0.07364713077
     0.1196803297     0.07368294272
      0.119782761     0.07371890758
     0.1198848463     0.07375481738
     0.1199869316     0.07379067667
     0.1200886708     0.07382625842
     0.1201900651     0.07386151223
     0.1202914594     0.07389658286
     0.1203925089     0.07393144365
     0.1204932147     0.07396621831
     0.1205939204     0.07400112981
     0.1206942825     0.07403610409
     0.1207946445     0.07407123313
     0.1208946628     0.07410631119
     0.1209946812     0.07414135292
     0.1210943558     0.07417615334
     0.1211940304     0.07421079761
     0.1212933614     0.07424518404
     0.1213926923     0.07427948521
     0.1214916795      0.0743136514
     0.1215906668     0.07434786987
     0.1216893103      0.0743820769
     0.1217879538     0.07441642622
     0.1218862536     0.07445080812
     0.1219845534     0.07448532939
     0.1220825095      0.0745198389
     0.1221804656     0.07455442017
      0.122278078     0.07458891816
     0.1223756904     0.07462343373
     0.1224733028     0.07465796349
     0.1225705703     0.07469239622
     0.1226678378     0.07472687063
     0.1227647604     0.07476127562
     0.1228616829     0.07479573774
     0.1229586055     0.07483025186
     0.1230551819     0.07486468605
     0.1231517583     0.07489916199
     0.1232483347     0.07493369195
     0.1233449111     0.07496830084
     0.1234411389     0.07500288971
     0.1235373666      0.0750375956
     0.1236335944     0.07507240511
     0.1237294722     0.07510715139
     0.1238253501     0.07514190667
     0.1239212279     0.07517662245
     0.1240171057     0.07521128036
     0.1241126311     0.07524577878
     0.1242081564      0.0752803068
     0.1243036818     0.07531494749
     0.1243992071     0.07534978468
     0.1244943774     0.07538474397
     0.1245895476     0.07541996166
     0.1246847178     0.07545539458
     0.1247798881     0.07549096931
     0.1248747005     0.07552648104
      0.124969513     0.07556202554
     0.1250643254     0.07559761238
     0.1251587787     0.07563315023
      0.125253232     0.07566881666
     0.1253476854      0.0757046178
     0.1254417782     0.07574036792
      0.125535871      0.0757761091
     0.1256299638     0.07581173052
     0.1257236947     0.07584700977
     0.1258174256     0.07588205347
     0.1259111565     0.07591689589
     0.1260048874      0.0759516201
     0.1260982536     0.07598618772
     0.1261916198      0.0760208078
      0.126284986     0.07605551058
      0.126377986     0.07609014435
     0.1264709861     0.07612480227
       0.12656362     0.07615930647
     0.1266562539     0.07619378057
     0.1267485217     0.07622811792
     0.1268407895     0.07626252151
     0.1269330572     0.07629707221
     0.1270249574     0.07633169498
     0.1271168576     0.07636654822
     0.1272083902     0.07640145847
     0.1272999227     0.07643648343
     0.1273910877     0.07647137308
     0.1274822527     0.07650616149
     0.1275734176      0.0765407749
     0.1276642135     0.07657505373
     0.1277550094     0.07660917455
     0.1278454362     0.07664307848
      0.127935863     0.07667700342
     0.1280262898     0.07671104079
      0.128116346     0.07674510937
     0.1282064021     0.07677936039
     0.1282964583      0.0768137658
     0.1283861424     0.07683787651
     0.1284758264     0.07686896846
     0.1285655105     0.07690235017
     0.1286548209      0.0769363018
     0.1287441312     0.07696019867
     0.1288334416     0.07699115117
      0.128922752     0.07701424394
     0.1290116855     0.07703484737
     0.1291006191     0.07705491214
     0.1291895526      0.0770750835
     0.1292781077     0.07709550602
     0.1293666628     0.07711634814
     0.1294552179     0.07713764436
     0.1295433929     0.07715931906
     0.1296315679     0.07718147846
      0.129719743     0.07720413368
     0.1298075363       0.077227186
     0.1298953296     0.07725070743
     0.1299831229     0.07727464039
     0.1300709163      0.0772988944
     0.1301583245     0.07732324478
     0.1302457328     0.07734767192
      0.130333141     0.07737205348
     0.1304205493     0.07739628961
     0.1305079576      0.0774203185
     0.1305949756     0.07744402236
     0.1306819937      0.0774675559
     0.1307690117      0.0774910157
     0.1308560298     0.07751452482
     0.1309430478     0.07753820464
     0.1310296703     0.07756204214
     0.1311162928     0.07758620101
     0.1312029153     0.07761069713
     0.1312891405     0.07763540036
     0.1313753657     0.07766039244
     0.1314615908     0.07769598472
     0.1315474168     0.07773503137
     0.1316332427     0.07776492332
     0.1317190687     0.07780225469
     0.1318048947     0.07784206163
     0.1318903177     0.07787204345
     0.1319757407     0.07789875705
     0.1320611638     0.07792422135
     0.1321465868     0.07794901197
     0.1322320098     0.07797322589
     0.1323170241      0.0779967879
     0.1324020384     0.07802990275
     0.1324870528     0.07806590864
     0.1325720671     0.07809246018
     0.1326570814     0.07811583391
      0.132741681     0.07813815336
     0.1328262806     0.07816037036
     0.1329108802     0.07818282883
     0.1329954798     0.07820565958
     0.1330796606     0.07822874972
     0.1331638414     0.07825212913
     0.1332480222     0.07827564332
      0.133332203     0.07829912646
     0.1334159607     0.07833235443
     0.1334997185     0.07835841978
     0.1335834763     0.07839190021
     0.1336668089     0.07842740614
     0.1337501415     0.07846348048
     0.1338334741     0.07848948007
     0.1339168067     0.07852249438
     0.1339997098     0.07855780563
     0.1340826128     0.07859410151
     0.1341655159     0.07863086498
     0.1342484189     0.07866785699
      0.134331322     0.07870490554
     0.1344142251     0.07874186487
     0.1344971281     0.07877861886
     0.1345795902     0.07881490828
     0.1346620523     0.07885092209
     0.1347445144       0.078886709
     0.1348269765     0.07892235884
     0.1349094385     0.07895797455
     0.1349919006     0.07899364922
     0.1350739121      0.0790292554
     0.1351559236     0.07906501775
      0.135237935     0.07910093518
     0.1353199465     0.07913697152
      0.135401958     0.07917306827
     0.1354839695     0.07920915114
     0.1355655202     0.07924493818
     0.1356470709     0.07928055704
     0.1357286217      0.0793159474
     0.1358101724     0.07935107227
     0.1358917231     0.07938592541
     0.1359732739     0.07942053246
     0.1360548246     0.07945494539
     0.1361363753     0.07948924208
     0.1362179261     0.07952351779
     0.1362989971     0.07955766752
     0.1363800681     0.07959198315
     0.1364611391     0.07962653128
     0.1365422101     0.07966134268
     0.1366232812     0.07969640232
     0.1367038638     0.07973143295
     0.1367844465     0.07976653714
     0.1368650291     0.07980157476
     0.1369456117     0.07983639055
     0.1370261944     0.07987083527
      0.137106777     0.07990478975
     0.1371873597     0.07993818709
     0.1372679423     0.07997102905
      0.137348525     0.08000338631
     0.1374291076     0.08003539382
     0.1375096902     0.08006723252
     0.1375902729     0.08009909661
     0.1376708555     0.08012760907
     0.1377514382     0.08015886764
     0.1378314941     0.08018946186
     0.1379115501     0.08022189769
     0.1379916061     0.08025519056
      0.138071662     0.08028899947
      0.138151718     0.08032312195
     0.1382317739     0.08035738896
     0.1383118299     0.08039165899
     0.1383918859     0.08042583177
     0.1384713935     0.08045962757
     0.1385509011     0.08049321191
     0.1386304087     0.08052659461
     0.1387099164     0.08055984192
      0.138789424     0.08059304436
     0.1388689316     0.08062636378
     0.1389484393     0.08065991393
      0.139027379     0.08069351373
     0.1391063187     0.08072742049