# Probe 0 (0.4 0.005 1.4)
# Probe 1 (0.9 0.005 1.4)
# Probe 2 (1.4 0.005 1.4)
# Probe 3 (1.9 0.005 1.4)
# Probe 4 (2.4 0.005 1.4)
# Probe 5 (2.9 0.005 1.4)
# Probe 6 (3.4 0.005 1.4)
# Probe 7 (3.9 0.005 1.4)
# Probe 8 (4.4 0.005 1.4)
# Probe 9 (4.9 0.005 1.4)
# Probe 10 (5.4 0.005 1.4)
# Probe 11 (5.9 0.005 1.4)
# Probe 12 (6.4 0.005 1.4)
# Probe 13 (6.9 0.005 1.4)
# Probe 14 (7.4 0.005 1.4)
# Probe 15 (7.9 0.005 1.4)
# Probe 16 (8.4 0.005 1.4)
#           Probe                 0                 1                 2                 3                 4                 5                 6                 7                 8                 9                10                11                12                13                14                15                16
#            Time
    1.1999904e-06            293.15            293.15            293.15            293.15       293.1541597            293.15            293.15            293.15            293.15            293.15            293.15            293.15            293.15            293.15            293.15            293.15            293.15
  2.639965056e-06            293.15            293.15            293.15       293.1500001        293.159151            293.15            293.15            293.15       293.1499999            293.15            293.15            293.15            293.15            293.15            293.15            293.15            293.15
  4.367944597e-06            293.15            293.15            293.15       293.1500002       293.1651399            293.15            293.15            293.15       293.1499999            293.15            293.15            293.15            293.15            293.15            293.15            293.15            293.15
  6.441505713e-06            293.15            293.15            293.15       293.1500005       293.1723256       293.1500001            293.15            293.15       293.1499998       293.1499999            293.15            293.15            293.15            293.15            293.15            293.15            293.15
   8.92973777e-06            293.15            293.15            293.15        293.150001       293.1809474       293.1500003            293.15            293.15       293.1499998       293.1499999            293.15            293.15            293.15            293.15            293.15            293.15            293.15
  1.191552707e-05            293.15            293.15            293.15        293.150002        293.191291       293.1500006            293.15            293.15       293.1499997       293.1499999            293.15            293.15            293.15            293.15            293.15            293.15            293.15
  1.549838863e-05            293.15            293.15            293.15       293.1500038       293.2036998       293.1500013            293.15            293.15       293.1499996       293.1499998            293.15            293.15            293.15            293.15            293.15            293.15            293.15
  1.979776087e-05            293.15            293.15            293.15        293.150007       293.2185833       293.1500026            293.15            293.15       293.1499995       293.1499998            293.15            293.15            293.15            293.15            293.15            293.15            293.15
  2.495674128e-05            293.15            293.15            293.15       293.1500128        293.236432       293.1500052            293.15            293.15       293.1499994       293.1499997            293.15            293.15            293.15            293.15            293.15            293.15            293.15
  3.114713435e-05            293.15            293.15            293.15       293.1500231        293.257831       293.1500101            293.15            293.15       293.1499992       293.1499997            293.15            293.15            293.15            293.15            293.15            293.15            293.15
  3.857523794e-05            293.15            293.15            293.15       293.1500411       293.2834761       293.1500191            293.15            293.15        293.149999       293.1499996            293.15            293.15            293.15            293.15            293.15            293.15            293.15
  4.748896225e-05            293.15            293.15            293.15       293.1500728       293.3141923       293.1500356            293.15            293.15       293.1499988       293.1499995            293.15            293.15            293.15            293.15            293.15            293.15            293.15
  5.818543142e-05            293.15            293.15            293.15       293.1501282       293.3509491       293.1500654            293.15            293.15       293.1499986       293.1499994            293.15            293.15            293.15            293.15            293.15            293.15            293.15
  7.102064463e-05            293.15            293.15            293.15       293.1502247       293.3948736       293.1501188            293.15            293.15       293.1499982       293.1499992            293.15            293.15            293.15            293.15            293.15            293.15            293.15
  8.642131685e-05            293.15            293.15       293.1500001       293.1503925       293.4472584       293.1502139            293.15            293.15       293.1499979        293.149999            293.15            293.15            293.15            293.15            293.15            293.15            293.15
  0.0001049009832            293.15            293.15       293.1500002       293.1506837       293.5095575        293.150382       293.1500001            293.15       293.1499974       293.1499988            293.15            293.15            293.15            293.15            293.15            293.15            293.15
  0.0001270765827            293.15            293.15       293.1500004       293.1511879       293.5833432       293.1506775       293.1500002            293.15       293.1499969       293.1499986            293.15            293.15            293.15            293.15            293.15            293.15            293.15
  0.0001536896689            293.15            293.15       293.1500011       293.1520581       293.6702059       293.1511944       293.1500004            293.15       293.1499962       293.1499983            293.15            293.15            293.15            293.15            293.15            293.15            293.15
  0.0001856219625            293.15            293.15       293.1500029        293.153554       293.7715192        293.152093       293.1500011            293.15       293.1499954       293.1499979            293.15            293.15            293.15            293.15            293.15            293.15            293.15
  0.0002239407148            293.15            293.15       293.1500074       293.1561121       293.8881099       293.1536456       293.1500028            293.15       293.1499945       293.1499974            293.15            293.15            293.15            293.15            293.15            293.15            293.15
  0.0002699019884            293.15            293.15       293.1500187       293.1604507       294.0194966       293.1563055        293.150007            293.15       293.1499934       293.1499969            293.15            293.15            293.15            293.15            293.15            293.15            293.15
  0.0003250351347            293.15       293.1500001       293.1500466       293.1677278       294.1629309       293.1608164       293.1500176            293.15        293.149992       293.1499962            293.15            293.15            293.15            293.15            293.15            293.15            293.15
  0.0003911802278            293.15       293.1500002       293.1501153       293.1797361       294.3116721       293.1683612        293.150044            293.15       293.1499904       293.1499953            293.15            293.15            293.15            293.15            293.15            293.15            293.15
  0.0004705543394            293.15       293.1500007       293.1502817       293.1990801       294.4526573       293.1807389       293.1501086            293.15       293.1499885       293.1499943            293.15            293.15            293.15            293.15            293.15            293.15            293.15
  0.0005658032734            293.15       293.1500023       293.1506776       293.2291328       294.5637807       293.2004833       293.1502654            293.15       293.1499862       293.1499928            293.15            293.15            293.15            293.15            293.15            293.15            293.15
  0.0006799700095            293.15       293.1500081       293.1515945       293.2732884       294.6122272       293.2306753       293.1506382       293.1500004       293.1499835        293.149991       293.1499999            293.15            293.15            293.15            293.15            293.15            293.15
  0.0008169700928            293.15       293.1500274       293.1536453       293.3330185       294.5572456       293.2741528       293.1515021       293.1500021       293.1499804       293.1499885       293.1499998            293.15            293.15            293.15            293.15            293.15            293.15
  0.0009814618316       293.1500003       293.1500903       293.1580111       293.4036396       294.3621807       293.3311883       293.1534303       293.1500101       293.1499768       293.1499852       293.1499996            293.15            293.15            293.15            293.15            293.15            293.15
   0.001179117227       293.1500013       293.1502853       293.1666728       293.4688574       294.0228584       293.3954217       293.1575029       293.1500441        293.149973       293.1499808       293.1499991            293.15            293.15            293.15            293.15            293.15            293.15
   0.001416111804       293.1500067       293.1508518       293.1821505       293.4988491       293.6068397       293.4493214       293.1654001        293.150175       293.1499703       293.1499749       293.1499981       293.1499999            293.15            293.15            293.15            293.15            293.15
   0.001666544217       293.1500259       293.1521133       293.2032238       293.4702785        293.286408       293.4668726       293.1772573       293.1505405       293.1499738        293.149968       293.1499963       293.1499999            293.15            293.15            293.15            293.15            293.15
   0.001916976631       293.1500777       293.1543711       293.2260985       293.4011004       293.1168272       293.4436769       293.1917166       293.1513275       293.1499933       293.1499606       293.1499935       293.1499996            293.15            293.15            293.15            293.15            293.15
   0.002167409044       293.1501968       293.1578935       293.2465592       293.3202399       293.0568905        293.391016       293.2068101       293.1527734       293.1500479       293.1499533       293.1499896       293.1499992            293.15            293.15            293.15            293.15            293.15
   0.002417841458        293.150439       293.1627984       293.2605013       293.2500062       293.0570749       293.3267408       293.2200423       293.1551205       293.1501707       293.1499472       293.1499842       293.1499985            293.15            293.15            293.15            293.15            293.15
   0.002668273871       293.1508848       293.1689719       293.2652931       293.2034225       293.0889879       293.2676645       293.2290642       293.1585531       293.1504124       293.1499452       293.1499772       293.1499974       293.1499999            293.15            293.15            293.15            293.15
   0.002918706284       293.1516387        293.176033       293.2605552       293.1813598       293.1344296       293.2233251       293.2323269       293.1631271       293.1508423       293.1499525       293.1499687       293.1499955       293.1499998            293.15            293.15            293.15            293.15
   0.003169138698       293.1528238       293.1833612       293.2480804       293.1778142       293.1815703        293.195806       293.2294674       293.1687144       293.1515475       293.1499778       293.1499592       293.1499927       293.1499996            293.15            293.15            293.15            293.15
   0.003419571111       293.1545699       293.1901712       293.2310087       293.1869314        293.220112       293.1844383       293.2212798       293.1749789       293.1526258       293.1500344       293.1499498       293.1499887       293.1499992            293.15            293.15            293.15            293.15
   0.003670003524       293.1569952       293.1956373       293.2128645       293.2034747       293.2394979       293.1862418       293.2094181       293.1813888       293.1541739       293.1501421       293.1499427       293.1499832       293.1499985       293.1499999            293.15            293.15            293.15
   0.003920435938       293.1601847       293.1990459       293.1968167       293.2232664       293.2348954       293.1966971       293.1959461       293.1872609       293.1562697       293.1503287       293.1499415       293.1499762       293.1499974       293.1499998            293.15            293.15            293.15
   0.004170868351       293.1641645       293.1999245       293.1849208        293.242282       293.2101015       293.2108262       293.1827855       293.1918537       293.1589522       293.1506301       293.1499516        293.149968       293.1499957       293.1499997            293.15            293.15            293.15
   0.004421300765       293.1688774       293.1981247       293.1778418       293.2573088       293.1747361       293.2241363       293.1714306       293.1944955       293.1621989       293.1510921       293.1499794       293.1499592       293.1499932       293.1499994            293.15            293.15            293.15
   0.004671733178       293.1741624       293.1938522       293.1753557       293.2665861       293.1382619       293.2332318       293.1628728       293.1947126       293.1659057       293.1517662       293.1500342       293.1499513       293.1499896       293.1499989       293.1499999            293.15            293.15
   0.004922165591        293.179749       293.1876588       293.1765308        293.270249       293.1064462       293.2365638       293.1574725       293.1923317       293.1698724       293.1527067       293.1501281       293.1499466       293.1499849       293.1499982       293.1499999            293.15            293.15
   0.005172598005       293.1852638       293.1804077        293.179907       293.2699371       293.0808928       293.2346635       293.1549408       293.1875434       293.1738005       293.1539643       293.1502774       293.1499484       293.1499791       293.1499971       293.1499998            293.15            293.15
   0.005423030418       293.1902638       293.1730943       293.1839548        293.267139       293.0609245       293.2295293       293.1545423       293.1808958        293.177314        293.155577       293.1505043       293.1499608       293.1499723       293.1499956       293.1499997            293.15            293.15
   0.005673462831       293.1942958       293.1665887       293.1876435        293.265701       293.0438448       293.2236169       293.1554475       293.1732138       293.1800043       293.1575584       293.1508361       293.1499889       293.1499653       293.1499933       293.1499994            293.15            293.15
   0.005923895245       293.1969724       293.1615334       293.1906684       293.2664639       293.0285443       293.2177541        293.157003       293.1654568        293.181495        293.159886       293.1513045       293.1500385       293.1499592       293.1499904        293.149999       293.1499999            293.15
   0.006174327658       293.1980455       293.1583362       293.1932935       293.2693665        293.012434       293.2139781       293.1588679       293.1585184       293.1815164       293.1624883       293.1519449       293.1501173       293.1499559       293.1499867       293.1499984       293.1499999            293.15
   0.006424760072       293.1974548       293.1571833       293.1960767        293.273701       292.9955096       293.2119963       293.1610256       293.1530694       293.1799704       293.1652378       293.1527932       293.1502357       293.1499578       293.1499823       293.1499975       293.1499998            293.15
   0.006675192485       293.1953409       293.1580781       293.1995853       293.2785923       292.9773592        293.211819       293.1636493       293.1495135       293.1769693       293.1679513        293.153882       293.1504071       293.1499681       293.1499776       293.1499963       293.1499996            293.15
   0.006925624898       293.1920161       293.1609087       293.2041894       293.2834174       292.9589991       293.2126951       293.1669601       293.1480083       293.1728387       293.1704025       293.1552339       293.1506486         293.14999        293.149973       293.1499946       293.1499994            293.15
   0.007176057312       293.1879405       293.1654917       293.2099764       293.2879394       292.9407117       293.2139798       293.1711152       293.1484843       293.1680894       293.1723497       293.1568545       293.1509809       293.1500273       293.1499696       293.1499924        293.149999       293.1499999
   0.007426489725       293.1836453       293.1715742       293.2167765       293.2921513       292.9201713       293.2176101       293.1761525       293.1507075       293.1633463       293.1735739       293.1587245       293.1514273       293.1500848       293.1499687       293.1499897       293.1499985       293.1499999
   0.007676922139       293.1796035       293.1789094       293.2242597        293.296125       292.9001764       293.2208093       293.1819633       293.1544548       293.1592555       293.1739207       293.1607935       293.1520134       293.1501691       293.1499722       293.1499865       293.1499978       293.1499998
   0.007927354552       293.1762399       293.1871968       293.2320338       293.2998124        292.881488       293.2224856       293.1883182       293.1595078       293.1564069       293.1733401       293.1629757       293.1527646       293.1502891       293.1499821        293.149983       293.1499968       293.1499997
   0.008177786965       293.1739476       293.1960807        293.239731       293.3031889       292.8640571       293.2225588        293.194908       293.1656082       293.1552595       293.1719131       293.1651522       293.1537036       293.1504563       293.1500011       293.1499797       293.1499955       293.1499995
   0.008428219379       293.1731278        293.205047       293.2469422       293.3057463       292.8458109       293.2212203       293.2012478       293.1724041       293.1560766       293.1698636       293.1671791       293.1548451       293.1506851       293.1500319       293.1499772       293.1499938       293.1499993
   0.008678651792       293.1741379       293.2134484       293.2532542       293.3072582       292.8260828       293.2188079       293.2067345       293.1795061       293.1589133       293.1675387       293.1689075       293.1561931       293.1509926       293.1500782       293.1499764       293.1499918       293.1499989
   0.008929084205       293.1772079       293.2205998       293.2582665       293.3074989       292.8046185       293.2154479       293.2107698        293.186473       293.1636259       293.1653768       293.1702069       293.1577354       293.1513984       293.1501451       293.1499787       293.1499894       293.1499983
   0.009179516619       293.1824574       293.2258708       293.2615768       293.3063581       292.7816295       293.2110481       293.2128425       293.1927998       293.1698896       293.1638473       293.1709919       293.1594404       293.1519237       293.1502391       293.1499858        293.149987       293.1499976
   0.009429949032       293.1896887       293.2288378       293.2628736       293.3039068       292.7575933       293.2055001        293.212691       293.1979527       293.1772197       293.1633755       293.1712467       293.1612556       293.1525902       293.1503689       293.1499994       293.1499848       293.1499966
   0.009680381446        293.198387       293.2292987       293.2620394        293.300413       292.7330923       293.1987952       293.2103559        293.201436       293.1849975        293.164271       293.1710379       293.1631093       293.1534171        293.150545       293.1500216       293.1499833       293.1499954
   0.009930813859       293.2077643        293.227329       293.2592156       293.2963201       292.7087767       293.1911786       293.2061746       293.2028697       293.1925042       293.1666764       293.1705154       293.1649164       293.1544192       293.1507804       293.1500548       293.1499832       293.1499939
    0.01018124627        293.216835       293.2233511       293.2548126       293.2921958        292.685356       293.1831475       293.2007398       293.2021401       293.1989762       293.1705273       293.1699026       293.1665875       293.1556033       293.1510898       293.1501027       293.1499855       293.1499921
    0.01043167869       293.2245198       293.2180671       293.2494742       293.2886722        292.663541       293.1753394       293.1948239       293.1993838        293.203687       293.1755257       293.1694668       293.1680418       293.1569651       293.1514897       293.1501701       293.1499915       293.1499902
     0.0106821111       293.2297759       293.2123576       293.2440037       293.2863669       292.6438308       293.1685674       293.1892783       293.1950108       293.2060476       293.1811472       293.1694713       293.1692206       293.1584868       293.1519972       293.1502636       293.1500023       293.1499884
    0.01093254351       293.2317593       293.2071613       293.2392677       293.2857994       292.6265637       293.1635973       293.1849318       293.1896636       293.2057009       293.1866928       293.1701221       293.1700972       293.1601349       293.1526293       293.1503912       293.1500197       293.1499869
    0.01118297593        293.229959       293.2033337       293.2360863       293.2873199       292.6119768       293.1610375        293.182494       293.1841346       293.2025975       293.1913749       293.1715155        293.170684         293.16186       293.1534007       293.1505626       293.1500456       293.1499863
    0.01143340834       293.2243562       293.2015119       293.2351289       293.2910641       292.6001203       293.1612295       293.1824751       293.1792487       293.1970805       293.1944243       293.1735977       293.1710324        293.163599       293.1543224       293.1507892       293.1500829       293.1499874
    0.01168384075       293.2155296         293.20201       293.2368047       293.2969485       292.5908642       293.1641847       293.1851011        293.175733       293.1898408       293.1952453       293.1761533       293.1712231       293.1652789       293.1553992        293.151084       293.1501355        293.149991
    0.01193427317       293.2048108       293.2047624       293.2411926       293.3046872       292.5839008       293.1696414       293.1902754       293.1741037       293.1818306       293.1935066       293.1788114       293.1713483       293.1668235       293.1566275       293.1514613       293.1502086       293.1499983
    0.01218470558       293.1937634       293.2093937       293.2479855       293.3137399       292.5783887       293.1770533       293.1975811       293.1745901       293.1741368       293.1892241       293.1810918        293.171488       293.1681616       293.1579927       293.1519361       293.1503083       293.1500103
    0.01243513799        293.184081       293.2152857       293.2565955       293.3236662       292.5740237       293.1858029       293.2063503       293.1771012       293.1678284       293.1827964       293.1824824       293.1716862       293.1692339       293.1594684        293.152523       293.1504424       293.1500283
    0.01268557041       293.1774464        293.221702       293.2662242       293.3339566       292.5703002       293.1951909       293.2157745       293.1812523       293.1638014        293.174997       293.1825341       293.1719297       293.1699988       293.1610151       293.1532353       293.1506196       293.1500542
    0.01293600282       293.1751841       293.2279529       293.2759299       293.3441688       292.5667225       293.2045422       293.2250405       293.1865135       293.1626563       293.1669218       293.1809558       293.1721378       293.1704344         293.16258       293.1540829       293.1508504       293.1500912
    0.01318643523       293.1780744       293.2335426       293.2848345        293.353945       292.5628923       293.2132878       293.2334453       293.1923598       293.1646323       293.1597875       293.1776936       293.1721673       293.1705373       293.1640994       293.1550705        293.151146       293.1501432
    0.01343686765       293.1861837       293.2382713       293.2922142       293.3630606         292.55856       293.2210149       293.2404899       293.1983668       293.1695963       293.1547758       293.1729823       293.1718397       293.1703186        293.165502       293.1561958       293.1515188       293.1502149
    0.01368730006       293.1987701       293.2422651       293.2976243       293.3714038       292.5535784       293.2274575       293.2459451       293.2042579        293.177119       293.1528327       293.1673455       293.1709721       293.1697975       293.1667138       293.1574464       293.1519813       293.1503122
    0.01393773247       293.2146698       293.2459373       293.3009638         293.37893       292.5477292       293.2325159       293.2498722       293.2099572       293.1865737       293.1544883       293.1615548       293.1694383       293.1689953       293.1676633       293.1587983       293.1525454       293.1504421
    0.01418816489       293.2322459       293.2498879       293.3024839       293.3855609       292.5401979       293.2361964        293.252597       293.2155621       293.1971738       293.1597527       293.1565348       293.1671919         293.16793       293.1682871       293.1602147       293.1532213       293.1506126
     0.0144385973       293.2496952       293.2547483       293.3027422        293.390764       292.5261233       293.2384521       293.2546369       293.2212828       293.2080333       293.1680774       293.1532214       293.1643286       293.1666153       293.1685351       293.1616451       293.1540156        293.150833
    0.01468902971       293.2654157        293.260988       293.3024585       293.3881486       292.4307189       293.2377704       293.2565814       293.2273458       293.2182764        293.178497       293.1523874       293.1610935       293.1650671       293.1683753        293.163026       293.1549301       293.1511139
    0.01493946213       293.2782831       293.2687749       293.3022453       293.3597462       292.1158516        293.227924       293.2589066       293.2338829       293.2271489       293.1897728       293.1545177       293.1578827       293.1633136       293.1677965       293.1642838       293.1559593       293.1514663
    0.01518989454       293.2877669       293.2778749       293.3022877       293.3138814       291.9502378       293.2039863       293.2617694       293.2408322       293.2341231       293.2006437       293.1596619       293.1552034       293.1614054       293.1668116       293.1653393       293.1570889       293.1519015
    0.01544032695       293.2939022       293.2876441       293.3021649       293.2637081       291.9575955       293.1673709       293.2648704       293.2478732       293.2389698       293.2100337       293.1674256        293.153598       293.1594258       293.1654588       293.1661136       293.1582939       293.1524302
    0.01569075937       293.2971272       293.2971873       293.3009343       293.2236655       292.0562488       293.1260918       293.2674454       293.2544156       293.2417966       293.2172457       293.1769799       293.1535546       293.1575107       293.1638019       293.1665355       293.1595372       293.1530612
    0.01594119178       293.2980705       293.3054296       293.2975312        293.202772       292.1679766       293.0908804       293.2684362       293.2597426         293.24291       293.2219386       293.1872537       293.1554234       293.1558396       293.1619304       293.1665493       293.1607698       293.1538002
    0.01619162419       293.2973874       293.3112996       293.2913309       293.2025912       292.2507832       293.0699833       293.2668217       293.2630651       293.2426924       293.2241694       293.1970803       293.1593301       293.1546367       293.1599568       293.1661221       293.1619315       293.1546482
    0.01644205661       293.2956194       293.3139247       293.2825565       293.2178731       292.3005917       293.0657223       293.2619614       293.2636985       293.2414876        293.224273       293.2054107       293.1651188       293.1541487       293.1580142       293.1652495       293.1629539       293.1555993