# Probe 0 (2.4 2.295 1.5)
#           Probe                 0
#            Time
    1.1999904e-06            293.15
  2.639965056e-06            293.15
  4.367944597e-06            293.15
  6.441505713e-06            293.15
   8.92973777e-06            293.15
  1.191552707e-05            293.15
  1.549838863e-05            293.15
  1.979776087e-05            293.15
  2.495674128e-05            293.15
  3.114713435e-05            293.15
  3.857523794e-05            293.15
  4.748896225e-05            293.15
  5.818543142e-05            293.15
  7.102064463e-05            293.15
  8.642131685e-05            293.15
  0.0001049009832            293.15
  0.0001270765827            293.15
  0.0001536896689            293.15
  0.0001856219625            293.15
  0.0002239407148            293.15
  0.0002699019884            293.15
  0.0003250351347            293.15
  0.0003911802278            293.15
  0.0004705543394            293.15
  0.0005658032734            293.15
  0.0006799700095            293.15
  0.0008169700928            293.15
  0.0009814618316            293.15
   0.001179117227            293.15
   0.001416111804       293.1500002
   0.001666544217       293.1500009
   0.001916976631       293.1500039
   0.002167409044       293.1500131
   0.002417841458        293.150038
   0.002668273871       293.1500975
   0.002918706284       293.1502267
   0.003169138698       293.1504839
   0.003419571111       293.1509587
   0.003670003524       293.1517777
   0.003920435938       293.1531046
   0.004170868351        293.155132
   0.004421300765       293.1580616
   0.004671733178       293.1620701
   0.004922165591        293.167263
   0.005172598005       293.1736184
   0.005423030418        293.180931
   0.005673462831       293.1887706
   0.005923895245       293.1964721
   0.006174327658       293.2031775
   0.006424760072       293.2079416
   0.006675192485       293.2098993
   0.006925624898       293.2084676
   0.007176057312       293.2035317
   0.007426489725       293.1956009
   0.007676922139       293.1857268
   0.007927354552       293.1753966
   0.008177786965       293.1662717
   0.008428219379       293.1598801
   0.008678651792       293.1573458
   0.008929084205       293.1592228
   0.009179516619       293.1655237
   0.009429949032       293.1757239
   0.009680381446       293.1887972
   0.009930813859       293.2033405
    0.01018124627       293.2177354
    0.01043167869       293.2302786
     0.0106821111       293.2393018
    0.01093254351       293.2433592
    0.01118297593       293.2415101
    0.01143340834       293.2336322
    0.01168384075       293.2205773
    0.01193427317       293.2040656
    0.01218470558       293.1864392
    0.01243513799       293.1703036
    0.01268557041       293.1581484
    0.01293600282       293.1519387
    0.01318643523       293.1528171
    0.01343686765        293.160843
    0.01368730006       293.1749362
    0.01393773247       293.1930519
    0.01418816489       293.2126736
     0.0144385973       293.2313292
    0.01468902971       293.2470592
    0.01493946213       293.2587272
    0.01518989454        293.266126
    0.01544032695       293.2698551
    0.01569075937       293.2709681
    0.01594119178       293.2706424
    0.01619162419       293.2697961
    0.01644205661       293.2688652
    0.01669248902       293.2678023
    0.01694292143       293.2662067
    0.01719335385       293.2635101
    0.01744378626       293.2591954
    0.01769421867       293.2529759
    0.01794465109       293.2449833
     0.0181950835        293.235861
    0.01844551591       293.2266853
    0.01869594833       293.2187495
    0.01894638074       293.2132894
    0.01919681315       293.2112226
    0.01944724557       293.2129503
    0.01969767798       293.2182417
    0.01994811039       293.2262811
    0.02019854281       293.2358092
    0.02044897522        293.245424
    0.02069940763       293.2539824
    0.02094984005       293.2607859
    0.02120027246       293.2656678
    0.02145070487       293.2689615
    0.02170113729        293.271338
     0.0219515697       293.2735355
    0.02220200211       293.2760933
    0.02245243453       293.2790223
    0.02270286694       293.2818157
    0.02295329935        293.283653
    0.02320373177       293.2836651
    0.02345416418       293.2812381
    0.02370459659        293.276233
    0.02395502901       293.2690587
    0.02420546142       293.2606266
    0.02445589384       293.2521982
    0.02470632625       293.2452356
    0.02495675866       293.2410519
    0.02520719108       293.2405072
    0.02545762349       293.2439248
     0.0257080559       293.2510401
    0.02595848832       293.2610953
    0.02620892073       293.2729902
    0.02645935314       293.2854588
    0.02670978556       293.2972595
    0.02696021797       293.3073009
    0.02721065038       293.3147964
     0.0274610828        293.319304
    0.02771151521       293.3206914
    0.02796194762       293.3190121
    0.02821238004        293.314462
    0.02846281245       293.3072505
    0.02871324486       293.2975887
    0.02896367728       293.2857798
    0.02921410969       293.2723322
     0.0294645421       293.2580174
    0.02971497452       293.2438451
    0.02996540693       293.2309862
    0.03021583934       293.2206403
    0.03046627176       293.2138733
    0.03071670417        293.211571
    0.03096713658       293.2143747
      0.031217569       293.2225344
    0.03146800141       293.2358254
    0.03171843382       293.2535123
    0.03196886624       293.2743447
    0.03221929865       293.2966796
    0.03246973106       293.3186745
    0.03272016348       293.3385262
    0.03297059589       293.3546129
     0.0332210283       293.3656184
    0.03347146072       293.3707109
    0.03372189313       293.3696806
    0.03397232554       293.3630226
    0.03422275796       293.3519132
    0.03447319037       293.3380109
    0.03472362278       293.3230703
     0.0349740552       293.3086269
    0.03522448761       293.2958763
    0.03547492002        293.285606
    0.03572535244       293.2781068
    0.03597578485       293.2731051
    0.03622621726       293.2699353
    0.03647664968       293.2678041
    0.03672708209         293.26604
     0.0369775145       293.2642989
    0.03722794692       293.2625768
    0.03747837933       293.2611338
    0.03772881174       293.2604144
    0.03797924416       293.2609616
    0.03822967657       293.2632744
    0.03848010898       293.2676626
     0.0387305414       293.2741467
    0.03898097381       293.2824282
    0.03923140622       293.2919449
    0.03948183864       293.3019891
    0.03973227105       293.3118354
    0.03998270346       293.3208324
    0.04023313588       293.3284433
    0.04048356829       293.3342641
     0.0407340007       293.3379744
    0.04098443312         293.33931
    0.04123486553       293.3380903
    0.04148529795       293.3342682
    0.04173573036        293.327984
    0.04198616277       293.3195821
    0.04223659519       293.3096827
     0.0424870276       293.2991989
    0.04273746001       293.2892423
    0.04298789243       293.2809595
    0.04323832484       293.2753699
    0.04348875725       293.2732421
    0.04373918967       293.2749881
    0.04398962208        293.280578
    0.04424005449       293.2895193
    0.04449048691       293.3009215
    0.04474091932       293.3136316
    0.04499135173       293.3263886
    0.04524178415       293.3378984
    0.04549221656        293.347007
    0.04574264897       293.3528242
    0.04599308139       293.3548201
     0.0462435138       293.3528884
    0.04649394621        293.347327
    0.04674437863       293.3388075
    0.04699481104       293.3282804
    0.04724524345       293.3167747
    0.04749567587       293.3053379
    0.04774610828        293.294945
    0.04799654069        293.286385
    0.04824697311       293.2801822
    0.04849740552       293.2765735
    0.04874783793       293.2755391
    0.04899827035       293.2769028
    0.04924870276       293.2803717
    0.04949913517        293.285619
    0.04974956759       293.2923862
             0.05        293.300489
          0.05025       293.3097511
           0.0505       293.3199862
          0.05075       293.3308858
            0.051       293.3419595
          0.05125       293.3525241
           0.0515       293.3617734
          0.05175       293.3689018
            0.052       293.3732189
          0.05225       293.3742289
           0.0525       293.3716921
          0.05275       293.3656439
            0.053       293.3564097
          0.05325       293.3445799
           0.0535       293.3309596
          0.05375       293.3165168
            0.054       293.3023173
          0.05425       293.2894557
           0.0545       293.2789767
          0.05475       293.2717883
            0.055       293.2685716
          0.05525       293.2697163
           0.0555       293.2752383
          0.05575       293.2847889
            0.056       293.2977165
          0.05625       293.3131218
           0.0565       293.3298998
          0.05675       293.3468092
            0.057       293.3625895
          0.05725       293.3761204
           0.0575       293.3865607
          0.05775        293.393416
            0.058       293.3965382
          0.05825       293.3960791
           0.0585       293.3924421
          0.05875       293.3862397
            0.059       293.3782291
          0.05925       293.3692486
           0.0595       293.3601561
          0.05975       293.3516649
             0.06       293.3442623
          0.06025       293.3382471
           0.0605        293.333692
          0.06075       293.3304585
            0.061       293.3282756
          0.06125       293.3268442
           0.0615       293.3259378
          0.06175       293.3254745
            0.062       293.3255426
          0.06225       293.3263741
           0.0625        293.328266
          0.06275       293.3314706
            0.063       293.3360871
          0.06325       293.3419942
           0.0635       293.3488352
          0.06375       293.3560593
            0.064       293.3630182
          0.06425       293.3690888
           0.0645       293.3737937
          0.06475       293.3768883
            0.065       293.3783848
          0.06525       293.3785095
           0.0655       293.3775934
          0.06575       293.3759898
            0.066        293.374007
          0.06625       293.3719093
           0.0665       293.3699546
          0.06675       293.3684312
            0.067       293.3676771
          0.06725       293.3680679
           0.0675       293.3699688
          0.06775       293.3736556
            0.068       293.3792286
          0.06825       293.3865394
           0.0685       293.3951503
          0.06875       293.4043601
            0.069       293.4132944
          0.06925       293.4210285
           0.0695       293.4267143
          0.06975       293.4296988
             0.07       293.4296284
          0.07025       293.4265185
           0.0705         293.42076
          0.07075       293.4130631
            0.071       293.4043584
          0.07125       293.3956598
           0.0715       293.3879165
          0.07175       293.3818836
            0.072       293.3780494
          0.07225       293.3766091
           0.0725         293.37749
          0.07275        293.380407
            0.073       293.3849678
          0.07325       293.3907577
           0.0735       293.3973977
          0.07375       293.4045593
            0.074        293.411956
          0.07425       293.4193344
           0.0745        293.426474
          0.07475        293.433201
            0.075       293.4393979
          0.07525       293.4449956
           0.0755       293.4499402
          0.07575       293.4541558
            0.076       293.4575275
          0.07625       293.4599146
           0.0765       293.4611743
          0.07675       293.4611984
            0.077       293.4599555
          0.07725       293.4575223
           0.0775       293.4540944
          0.07775       293.4499772
            0.078       293.4455645
          0.07825       293.4412982
           0.0785       293.4376214
          0.07875       293.4349421
            0.079       293.4336094
          0.07925        293.433904
           0.0795       293.4360332
          0.07975       293.4401211
             0.08       293.4461817
          0.08025       293.4540819
           0.0805       293.4635104
          0.08075       293.4739756
            0.081       293.4848406
          0.08125       293.4953939
           0.0815        293.504947
          0.08175       293.5129395
            0.082       293.5190275
          0.08225       293.5231305
           0.0825       293.5254203
          0.08275       293.5262548
            0.083       293.5260729
          0.08325       293.5252839
           0.0835       293.5241806
    0.08374626866       293.5229218
    0.08399253731       293.5214945
    0.08423880597       293.5198338
    0.08448507463        293.517891
    0.08472749534       293.5157426
    0.08496991604       293.5135192
    0.08521233675       293.5115038
    0.08545475746       293.5100656
    0.08569320406       293.5095851
    0.08593165066       293.5103294
    0.08617009726       293.5124596
    0.08640854386       293.5159775
    0.08664287931       293.5206357
    0.08687721476       293.5262027
    0.08711155021       293.5323036
    0.08734588566       293.5385163
    0.08758022111       293.5444133
    0.08781021702       293.5495069
    0.08804021292       293.5535678
    0.08827020883       293.5563293
    0.08849578174       293.5576319
    0.08872135464       293.5575434
    0.08894692755       293.5562077
      0.089167989       293.5539638
    0.08938905045       293.5511996
     0.0896101119       293.5484368
    0.08983117335       293.5462715
    0.09004753136       293.5453062
    0.09026388937       293.5459839
    0.09048024739       293.5486542
     0.0906966054       293.5534575
    0.09091296342       293.5603193
    0.09112428985       293.5687531
    0.09133561628       293.5784918
    0.09154694271       293.5890534
    0.09175826914       293.5999469
    0.09196959558       293.6107163
    0.09218092201       293.6209698
    0.09238668722        293.630168
    0.09259245243       293.6383741
    0.09279821764       293.6454228
    0.09300398285       293.6511696
    0.09320974806       293.6554718
    0.09341551327       293.6581895
    0.09361504317       293.6592022
    0.09381457307       293.6585486
    0.09401410297        293.656236
    0.09421363287       293.6523811
    0.09441316277       293.6472336
    0.09461269268       293.6411778
    0.09481222258       293.6347093
    0.09500436248       293.6286138
    0.09519650239       293.6231674
    0.09538864229       293.6188275
    0.09558078219       293.6159404
     0.0957729221        293.614694
      0.095965062       293.6150987
    0.09615720191       293.6169996
    0.09634934181        293.620116
    0.09654148172       293.6241073
      0.096723509       293.6283854
    0.09690553627       293.6328896
    0.09708756355       293.6374362
    0.09726959083       293.6419224
    0.09745161811       293.6463072
    0.09763364539       293.6505892
    0.09781567266       293.6547827
    0.09799769994       293.6588949
    0.09817972722       293.6629128
     0.0983617545       293.6668022
    0.09854378178       293.6705151
    0.09872580905       293.6740111
    0.09890783633       293.6772687
    0.09908986361       293.6803039
    0.09927189089       293.6831796
    0.09945391817       293.6859959
    0.09963594544        293.688868
    0.09981797272       293.6918911
              0.1       293.6951061
     0.1001748252       293.6983445
     0.1003490391       293.7016057
     0.1005226438       293.7047185
     0.1006956416       293.7074883
     0.1008680344       293.7097349
     0.1010398245       293.7113282
      0.101211014       293.7122171
     0.1013816048       293.7124422
     0.1015515992       293.7121274
     0.1017209992        293.711453
     0.1018898069       293.7106311
     0.1020580244        293.709865
     0.1022256536       293.7093222
     0.1023926968       293.7091232
     0.1025591559       293.7093445
      0.102725033       293.7100343
     0.1028903301       293.7112308
     0.1030550492       293.7129739
     0.1032191924       293.7153081
     0.1033827616       293.7182747
      0.103545759        293.721891
     0.1037081864       293.7261348
     0.1038700459       293.7309324
     0.1040313394        293.736157
      0.104192069       293.7416348
     0.1043522366       293.7471556
     0.1045112881       293.7524744
     0.1046697853       293.7573927
     0.1048277303       293.7617277
      0.104985125       293.7653552
     0.1051419712       293.7682295
     0.1052977283       293.7703742
     0.1054529445       293.7718901
     0.1056076218       293.7729047
      0.105761762       293.7735599
      0.105915367       293.7739971
     0.1060684386       293.7743443
     0.1062209787       293.7747064
     0.1063729892       293.7751601
     0.1065244719       293.7757497
     0.1066759546       293.7764901
     0.1068269095       293.7773644
     0.1069773383         293.77834
     0.1071272431       293.7793773
     0.1072766255       293.7804401
     0.1074260079       293.7815028
     0.1075748681       293.7825367
     0.1077232077       293.7835165
     0.1078710286       293.7844163
     0.1080188496       293.7852184
     0.1081661519       293.7859156
     0.1083129373       293.7865292
     0.1084592077       293.7871086
     0.1086049649       293.7877297
     0.1087502106        293.788489
     0.1088954563       293.7894972
     0.1090401906       293.7908614
     0.1091844153       293.7926842
     0.1093281322       293.7950478
      0.109471343       293.7980023
     0.1096140495       293.8015489
     0.1097562536       293.8056251
     0.1098979569       293.8100974
     0.1100396602       293.8147823
     0.1101808628       293.8194118
     0.1103215665       293.8237052
     0.1104622702       293.8273915
     0.1106024749       293.8301946
     0.1107421824       293.8319051
     0.1108813945       293.8323849
     0.1110206067       293.8315758
     0.1111593234       293.8295132
     0.1112975464       293.8263303
     0.1114357695        293.822231
     0.1115734989       293.8175168
     0.1117107364       293.8125234
     0.1118479739       293.8075831
     0.1119847195       293.8030487
      0.112120975       293.7992099
     0.1122572304       293.7962811
     0.1123929958       293.7944215
     0.1125287612        293.793688
     0.1126640364       293.7940633
     0.1127988233       293.7954464
     0.1129336101       293.7976922
     0.1130679087       293.8006167
     0.1132022072       293.8040582
     0.1133360173       293.8078616
     0.1134693409       293.8119263
     0.1136026645       293.8162182
     0.1137355015       293.8207201
     0.1138683384       293.8254818
     0.1140006889       293.8305356
     0.1141330393        293.835944
     0.1142649031        293.841707
     0.1143967669       293.8478169
     0.1145281442       293.8542182
     0.1146595214       293.8608681
     0.1147904121       293.8676521
     0.1149208179       293.8744613
     0.1150512238       293.8811974
     0.1151811449       293.8877008
     0.1153105831       293.8938337
       0.11543954       293.8994623
     0.1155680175       293.9044656
     0.1156964951       293.9087572
     0.1158244932       293.9122401
     0.1159520138        293.914862
     0.1160790585       293.9165936
     0.1162056292       293.9174291
     0.1163317276       293.9173895
     0.1164573555        293.916529
     0.1165825146       293.9149409
     0.1167076737       293.9127491
     0.1168323641       293.9101258
     0.1169565874       293.9072582
     0.1170808108       293.9043231
     0.1172045671       293.9014993
     0.1173283235       293.8989052
     0.1174516128        293.896624
     0.1175749022        293.894658
     0.1176981915       293.8929595
     0.1178210121       293.8914379
     0.1179438327       293.8899618
     0.1180661844        293.888409
     0.1181885362       293.8866665
     0.1183104192       293.8846763
     0.1184323022       293.8824247
     0.1185537164       293.8799819
     0.1186751307       293.8774678
     0.1187960761       293.8750796
     0.1189165546       293.8730437
     0.1190370331       293.8715977
     0.1191570446       293.8709818
     0.1192770561       293.8713879
     0.1193966006       293.8729401
     0.1195161451       293.8756822
     0.1196352227       293.8795457
     0.1197543002       293.8843961
     0.1198729108       293.8899905
     0.1199910563       293.8960525
     0.1201092017       293.9023141
      0.120226882       293.9084709
      0.120344099       293.9142814
      0.120461316       293.9195786
     0.1205780697       293.9242154
     0.1206943619       293.9281342
     0.1208106541       293.9313514
     0.1209264849       293.9339084
     0.1210423156       293.9359051
     0.1211581464       293.9374438
     0.1212735138       293.9386207
     0.1213888812       293.9395301
     0.1215037853       293.9402417
     0.1216186894       293.9408161
     0.1217335935       293.9412949
     0.1218480323       293.9417035
     0.1219624712       293.9420562
     0.1220764449       293.9423512
     0.1221899553       293.9425778
     0.1223034657       293.9427219
     0.1224165128       293.9427663
     0.1225295599       293.9426957
     0.1226421436       293.9424982
     0.1227547274       293.9421638
     0.1228668479       293.9416878
     0.1229789683       293.9410646
     0.1230910888       293.9402927
      0.123202744       293.9393792
     0.1233143993         293.93833
     0.1234255893       293.9371661
     0.1235367793       293.9359058
     0.1236479693       293.9345783
     0.1237586921       293.9332255
     0.1238694149       293.9318851
     0.1239801377        293.930608
     0.1240903914        293.929456
      0.124200645       293.9284827
     0.1243108987       293.9277445
     0.1244206812       293.9272892
     0.1245304637       293.9271428
     0.1246402461       293.9273144
     0.1247500286       293.9277908
     0.1248598111       293.9285375
     0.1249691163       293.9294999
     0.1250784214       293.9306233
     0.1251877266        293.931852
     0.1252970318       293.9331427
     0.1254058554       293.9344677
     0.1255146791       293.9358384
     0.1256235027       293.9372916
     0.1257318427       293.9388863
     0.1258401827       293.9407181
     0.1259485227       293.9428903
     0.1260563769       293.9454949
      0.126164231       293.9486313
     0.1262720852       293.9523628
     0.1263794513       293.9566913
     0.1264868174       293.9616058
     0.1265941836        293.967028
     0.1267010594       293.9728042
     0.1268079353       293.9787953
     0.1269148112       293.9848145
     0.1270211945       293.9906407
     0.1271275779       293.9961181
     0.1272334687       294.0010661
     0.1273393596       294.0053927
     0.1274447579        294.009012
     0.1275501562       294.0119264
     0.1276550621       294.0141547
     0.1277599679       294.0157784
     0.1278643812        294.016885
     0.1279687945       294.0175816
     0.1280732078       294.0179543
     0.1281771262        294.018062
     0.1282810446       294.0179308
     0.1283849631       294.0175501
     0.1284883843       294.0168855
     0.1285918056        294.015882
     0.1286952268       294.0144837
     0.1287981484       294.0126564
       0.12890107       294.0103741
     0.1290039916       294.0076498
     0.1291064112       294.0045525
     0.1292088307       294.0011661
     0.1293112503       293.9976286
     0.1294136698       293.9941095
     0.1295155824       293.9908094
     0.1296174949       293.9878906
     0.1297194074       293.9855122
     0.1298208104       293.9838005
     0.1299222133       293.9828076
     0.1300236163        293.982538
     0.1301245071       293.9829318
     0.1302253979       293.9838631
     0.1303262888       293.9851595
     0.1304271796       293.9866222
      0.130527553       293.9880423
     0.1306279265       293.9892453
     0.1307282999       293.9900863
     0.1308281533       293.9904758
     0.1309280066       293.9904023
       0.13102786       293.9899275
     0.1311277134       293.9891889
     0.1312270412       293.9883884
      0.131326369       293.9877523
     0.1314256969       293.9875144
     0.1315250247       293.9878827
     0.1316243525       293.9890141
     0.1317231463       293.9909852
     0.1318219401       293.9938153
     0.1319207339       293.9974481
     0.1320195277       294.0017638
     0.1321177817       294.0065655
     0.1322160356       294.0116739
     0.1323142896       294.0168722
     0.1324120007        294.021919
     0.1325097118       294.0266504
     0.1326074229       294.0309057
      0.132705134       294.0345664
     0.1328022962       294.0375468
     0.1328994583       294.0398481
     0.1329966205        294.041494
     0.1330937827       294.0425446
     0.1331909448       294.0430828
      0.133288107       294.0431995
     0.1333847075        294.042983
     0.1334813081       294.0425071
     0.1335779086        294.041827
     0.1336745092       294.0409839
     0.1337705415       294.0400162
     0.1338665738       294.0389499
     0.1339626061       294.0378196
     0.1340580667        294.036673
     0.1341535274       294.0355484
     0.1342489881       294.0344913
     0.1343444488       294.0335417
     0.1344393309       294.0327344
      0.134534213       294.0320807
     0.1346290951       294.0315852
     0.1347239773       294.0312423
     0.1348182737       294.0310388
     0.1349125702       294.0309523
     0.1350068666       294.0309595
      0.135101163       294.0310356
     0.1351954595       294.0311547
     0.1352897559       294.0312901
     0.1353840523       294.0314151
     0.1354777443       294.0315022
     0.1355714363       294.0315265
     0.1356651283       294.0314641
     0.1357588202       294.0312938
     0.1358525122       294.0309983
     0.1359462042       294.0305657
     0.1360398961       294.0299968
     0.1361335881       294.0293065
     0.1362266513       294.0285299
     0.1363197144       294.0277079
     0.1364127776       294.0269058
     0.1365058408       294.0262104
     0.1365989039       294.0257223
     0.1366919671       294.0255505
     0.1367850303       294.0257792
     0.1368780934       294.0264927
     0.1369711566       294.0277414
     0.1370635598       294.0295213
     0.1371559629       294.0318111
      0.137248366       294.0345491
     0.1373407692       294.0376438
     0.1374331723        294.040979
      0.137524901       294.0443974
     0.1376166297       294.0477895
     0.1377083583       294.0510328
      0.137800087       294.0540302
     0.1378918157       294.0567186
     0.1379835444       294.0590734
      0.138075273       294.0611049
     0.1381663015       294.0628367
     0.1382573299       294.0643359
     0.1383483584       294.0656573
     0.1384393868        294.066852
     0.1385304153       294.0679598
     0.1386214437       294.0690041
     0.1387124722       294.0699877
     0.1388035006       294.0708948
     0.1388945291       294.0716971
     0.1389855575       294.0723621
      0.139076586       294.0728647
     0.1391676144       294.0731982
     0.1392578843       294.0733821
     0.1393481542       294.0734702
     0.1394384241        294.073544
     0.1395286939       294.0737115
     0.1396189638       294.0740981
     0.1397084555       294.0748256
     0.1397979472       294.0760124
     0.1398874389       294.0777495
     0.1399769306       294.0800874
     0.1400664223       294.0830245
      0.140155914       294.0865003
     0.1402454057       294.0903948
     0.1403340838       294.0944977
     0.1404227619       294.0986349
     0.1405114401       294.1025771
     0.1406001182       294.1060933
     0.1406887963       294.1089598
     0.1407774744       294.1110256
     0.1408661526        294.112185
      0.140953978       294.1123999
     0.1410418035        294.111719
     0.1411296289       294.1102467
     0.1412174544       294.1081504
     0.1413052799       294.1056446
     0.1413931053       294.1029705
     0.1414809308       294.1003718
       0.14156786       294.0980923
     0.1416547893       294.0962812
     0.1417417186       294.0950595
     0.1418286479       294.0944835
     0.1419155772       294.0945422
     0.1420025064       294.0951604
     0.1420894357        294.096208
      0.142176365       294.0975124
     0.1422632943       294.0988751
     0.1423502235       294.1000859
     0.1424371528       294.1009418
     0.1425240821       294.1012627
     0.1426110114       294.1009043
     0.1426979407       294.0997686
     0.1427848699        294.097814
     0.1428717992       294.0950618
     0.1429576811       294.0916427
     0.1430435631       294.0876693
      0.143129445       294.0833276
      0.143215327       294.0788327
     0.1433012089       294.0744103
     0.1433870908       294.0702787
     0.1434729728       294.0666321
     0.1435588547       294.0636274
     0.1436447366       294.0613761
     0.1437306186        294.059939
     0.1438165005       294.0593266
     0.1439023825       294.0595011
     0.1439882644       294.0603808
     0.1440741463       294.0618479
     0.1441588014       294.0637286
     0.1442434564       294.0658825
     0.1443281115       294.0681136
     0.1444127665       294.0702929
     0.1444974216       294.0722965
     0.1445820766       294.0740284
     0.1446667317       294.0754314
     0.1447513868       294.0764926
     0.1448360418        294.077245