# Probe 0 (0.4 0.005 1.4)
# Probe 1 (0.9 0.005 1.4)
# Probe 2 (1.4 0.005 1.4)
# Probe 3 (1.9 0.005 1.4)
# Probe 4 (2.4 0.005 1.4)
# Probe 5 (2.9 0.005 1.4)
# Probe 6 (3.4 0.005 1.4)
# Probe 7 (3.9 0.005 1.4)
# Probe 8 (4.4 0.005 1.4)
# Probe 9 (4.9 0.005 1.4)
# Probe 10 (5.4 0.005 1.4)
# Probe 11 (5.9 0.005 1.4)
# Probe 12 (6.4 0.005 1.4)
# Probe 13 (6.9 0.005 1.4)
# Probe 14 (7.4 0.005 1.4)
# Probe 15 (7.9 0.005 1.4)
# Probe 16 (8.4 0.005 1.4)
#           Probe                 0                 1                 2                 3                 4                 5                 6                 7                 8                 9                10                11                12                13                14                15                16
#            Time
    1.1999904e-06                 1                 1                 1                 1      0.9999923816                 1                 1                 1                 1                 1                 1                 1                 1                 1                 1                 1                 1
  2.639965056e-06                 1                 1                 1      0.9999999999      0.9999832383                 1                 1                 1                 1                 1                 1                 1                 1                 1                 1                 1                 1
  4.367944597e-06                 1                 1                 1      0.9999999997       0.999972264                 1                 1                 1                 1                 1                 1                 1                 1                 1                 1                 1                 1
  6.441505713e-06                 1                 1                 1      0.9999999995      0.9999590916                 1                 1                 1                 1                 1                 1                 1                 1                 1                 1                 1                 1
   8.92973777e-06                 1                 1                 1       0.999999999      0.9999432797                 1                 1                 1                 1                 1                 1                 1                 1                 1                 1                 1                 1
  1.191552707e-05                 1                 1                 1      0.9999999982      0.9999242987                 1                 1                 1                 1                 1                 1                 1                 1                 1                 1                 1                 1
  1.549838863e-05                 1                 1                 1       0.999999997      0.9999015113                 1                 1                 1                 1                 1                 1                 1                 1                 1                 1                 1                 1
  1.979776087e-05                 1                 1                 1      0.9999999952      0.9998741514                 1                 1                 1                 1                 1                 1                 1                 1                 1                 1                 1                 1
  2.495674128e-05                 1                 1                 1      0.9999999924       0.999841299                 1                 1                 1                 1                 1                 1                 1                 1                 1                 1                 1                 1
  3.114713435e-05                 1                 1                 1      0.9999999881      0.9998018466                 1                 1                 1                 1                 1                 1                 1                 1                 1                 1                 1                 1
  3.857523794e-05                 1                 1                 1      0.9999999817        0.99975446                 1                 1                 1                 1                 1                 1                 1                 1                 1                 1                 1                 1
  4.748896225e-05                 1                 1                 1      0.9999999722      0.9996975293                 1                 1                 1                 1                 1                 1                 1                 1                 1                 1                 1                 1
  5.818543142e-05                 1                 1                 1       0.999999958      0.9996291163                 1                 1                 1                 1                 1                 1                 1                 1                 1                 1                 1                 1
  7.102064463e-05                 1                 1                 1       0.999999937      0.9995468848                 1                 1                 1                 1                 1                 1                 1                 1                 1                 1                 1                 1
  8.642131685e-05                 1                 1                 1      0.9999999057      0.9994480153                 1                 1                 1                 1                 1                 1                 1                 1                 1                 1                 1                 1
  0.0001049009832                 1                 1                 1      0.9999998591      0.9993290858                 1                 1                 1                 1                 1                 1                 1                 1                 1                 1                 1                 1
  0.0001270765827                 1                 1                 1      0.9999997889      0.9991859424                 1                 1                 1                 1                 1                 1                 1                 1                 1                 1                 1                 1
  0.0001536896689                 1                 1                 1      0.9999996823      0.9990135271                 1                 1                 1                 1                 1                 1                 1                 1                 1                 1                 1                 1
  0.0001856219625                 1                 1                 1      0.9999995182      0.9988057241      0.9999999999                 1                 1                 1                 1                 1                 1                 1                 1                 1                 1                 1
  0.0002239407148                 1                 1                 1      0.9999992607      0.9985549804      0.9999999999                 1                 1                 1                 1                 1                 1                 1                 1                 1                 1                 1
  0.0002699019884                 1                 1                 1      0.9999988487       0.998252151      0.9999999996                 1                 1                 1                 1                 1                 1                 1                 1                 1                 1                 1
  0.0003250351347                 1                 1                 1      0.9999981748      0.9978857289       0.999999999                 1                 1                 1                 1                 1                 1                 1                 1                 1                 1                 1
  0.0003911802278                 1                 1                 1      0.9999970493      0.9974412454      0.9999999972                 1                 1                 1                 1                 1                 1                 1                 1                 1                 1                 1
  0.0004705543394                 1                 1                 1      0.9999951397        0.99690027      0.9999999924                 1                 1                 1                 1                 1                 1                 1                 1                 1                 1                 1
  0.0005658032734                 1                 1                 1      0.9999918801       0.996239226      0.9999999793                 1                 1                 1                 1                 1                 1                 1                 1                 1                 1                 1
  0.0006799700095                 1                 1                 1      0.9999863682      0.9954285278      0.9999999446                 1                 1                 1                 1                 1                 1                 1                 1                 1                 1                 1
  0.0008169700928                 1                 1                 1      0.9999772776      0.9944280176      0.9999998563                 1                 1                 1                 1                 1                 1                 1                 1                 1                 1                 1
  0.0009814618316                 1                 1                 1       0.999962967      0.9931869757      0.9999996485                 1                 1                 1                 1                 1                 1                 1                 1                 1                 1                 1
   0.001179117227                 1                 1                 1      0.9999419219      0.9916423661      0.9999992091                 1                 1                 1                 1                 1                 1                 1                 1                 1                 1                 1
   0.001416111804                 1                 1                 1       0.999913525      0.9897240195      0.9999984001                 1                 1                 1                 1                 1                 1                 1                 1                 1                 1                 1
   0.001666544217                 1                 1                 1      0.9998820764      0.9876320317      0.9999972743                 1                 1                 1                 1                 1                 1                 1                 1                 1                 1                 1
   0.001916976631                 1                 1      0.9999999999      0.9998483149      0.9854751344      0.9999959427                 1                 1                 1                 1                 1                 1                 1                 1                 1                 1                 1
   0.002167409044                 1                 1      0.9999999999      0.9998101796      0.9832428832       0.999994429                 1                 1                 1                 1                 1                 1                 1                 1                 1                 1                 1
   0.002417841458                 1                 1      0.9999999998       0.999766783      0.9809252407      0.9999927011                 1                 1                 1                 1                 1                 1                 1                 1                 1                 1                 1
   0.002668273871                 1                 1      0.9999999997      0.9997180295       0.978516927      0.9999906929      0.9999999999                 1                 1                 1                 1                 1                 1                 1                 1                 1                 1
   0.002918706284                 1                 1      0.9999999995      0.9996643009      0.9760170717      0.9999883291      0.9999999999                 1                 1                 1                 1                 1                 1                 1                 1                 1                 1
   0.003169138698                 1                 1      0.9999999994      0.9996058353      0.9734259513      0.9999855397      0.9999999999                 1                 1                 1                 1                 1                 1                 1                 1                 1                 1
   0.003419571111                 1                 1      0.9999999992      0.9995422115      0.9707414244      0.9999822555      0.9999999998                 1                 1                 1                 1                 1                 1                 1                 1                 1                 1
   0.003670003524                 1                 1       0.999999999      0.9994725712      0.9679586281      0.9999784011      0.9999999998                 1                 1                 1                 1                 1                 1                 1                 1                 1                 1
   0.003920435938                 1                 1      0.9999999987      0.9993963225      0.9650728334      0.9999739021      0.9999999997                 1                 1                 1                 1                 1                 1                 1                 1                 1                 1
   0.004170868351                 1                 1      0.9999999984      0.9993134814      0.9620817051      0.9999687033      0.9999999996                 1                 1                 1                 1                 1                 1                 1                 1                 1                 1
   0.004421300765                 1                 1       0.999999998      0.9992244216      0.9589848308      0.9999627803      0.9999999995                 1                 1                 1                 1                 1                 1                 1                 1                 1                 1
   0.004671733178                 1                 1      0.9999999974       0.999129408      0.9557816316      0.9999561337      0.9999999994                 1                 1                 1                 1                 1                 1                 1                 1                 1                 1
   0.004922165591                 1                 1      0.9999999967      0.9990283822      0.9524700254      0.9999487676      0.9999999992                 1                 1                 1                 1                 1                 1                 1                 1                 1                 1
   0.005172598005                 1                 1      0.9999999959      0.9989211078      0.9490448087      0.9999406682       0.999999999                 1                 1                 1                 1                 1                 1                 1                 1                 1                 1
   0.005423030418                 1                 1      0.9999999948      0.9988073419      0.9455015547      0.9999317954      0.9999999987                 1                 1                 1                 1                 1                 1                 1                 1                 1                 1
   0.005673462831                 1                 1      0.9999999935      0.9986868534       0.941839026      0.9999220886      0.9999999984                 1                 1                 1                 1                 1                 1                 1                 1                 1                 1
   0.005923895245                 1                 1       0.999999992      0.9985593874      0.9380545565      0.9999114825       0.999999998                 1                 1                 1                 1                 1                 1                 1                 1                 1                 1
   0.006174327658                 1                 1      0.9999999902      0.9984246742      0.9341449088      0.9998999196      0.9999999975                 1                 1                 1                 1                 1                 1                 1                 1                 1                 1
   0.006424760072                 1                 1       0.999999988      0.9982824792      0.9301068383      0.9998873553      0.9999999969                 1                 1                 1                 1                 1                 1                 1                 1                 1                 1
   0.006675192485                 1                 1      0.9999999854      0.9981326178      0.9259444832      0.9998737539      0.9999999961                 1                 1                 1                 1                 1                 1                 1                 1                 1                 1
   0.006925624898                 1                 1      0.9999999823      0.9979749346      0.9216504824       0.999859082      0.9999999953                 1                 1                 1                 1                 1                 1                 1                 1                 1                 1
   0.007176057312                 1                 1      0.9999999787      0.9978092325      0.9172204064      0.9998433016      0.9999999943                 1                 1                 1                 1                 1                 1                 1                 1                 1                 1
   0.007426489725                 1                 1      0.9999999745      0.9976352357      0.9126506287       0.999826367      0.9999999931                 1                 1                 1                 1                 1                 1                 1                 1                 1                 1
   0.007676922139                 1                 1      0.9999999696      0.9974526306      0.9079374395      0.9998082239      0.9999999916                 1                 1                 1                 1                 1                 1                 1                 1                 1                 1
   0.007927354552                 1                 1      0.9999999639      0.9972611125      0.9030770262      0.9997888146        0.99999999                 1                 1                 1                 1                 1                 1                 1                 1                 1                 1
   0.008177786965                 1                 1      0.9999999573      0.9970603674       0.898065397      0.9997680789       0.999999988                 1                 1                 1                 1                 1                 1                 1                 1                 1                 1
   0.008428219379                 1                 1      0.9999999497       0.996850104      0.8928986972      0.9997459656      0.9999999858                 1                 1                 1                 1                 1                 1                 1                 1                 1                 1
   0.008678651792                 1                 1      0.9999999411      0.9966299932       0.887572967      0.9997224184      0.9999999831                 1                 1                 1                 1                 1                 1                 1                 1                 1                 1
   0.008929084205                 1                 1      0.9999999313      0.9963997107      0.8820843041      0.9996973817      0.9999999802                 1                 1                 1                 1                 1                 1                 1                 1                 1                 1
   0.009179516619                 1                 1      0.9999999202      0.9961589295      0.8764287663      0.9996707989      0.9999999767                 1                 1                 1                 1                 1                 1                 1                 1                 1                 1
   0.009429949032                 1                 1      0.9999999076      0.9959073062      0.8706023018      0.9996426082      0.9999999728                 1                 1                 1                 1                 1                 1                 1                 1                 1                 1
   0.009680381446                 1                 1      0.9999998935       0.995644468      0.8646007327      0.9996127426      0.9999999684                 1                 1                 1                 1                 1                 1                 1                 1                 1                 1
   0.009930813859                 1                 1      0.9999998778      0.9953700052      0.8584197748      0.9995811269      0.9999999634                 1                 1                 1                 1                 1                 1                 1                 1                 1                 1
    0.01018124627                 1                 1      0.9999998602      0.9950834727      0.8520550646      0.9995476749      0.9999999577                 1                 1                 1                 1                 1                 1                 1                 1                 1                 1
    0.01043167869                 1                 1      0.9999998407      0.9947843874      0.8455021317      0.9995122881      0.9999999513                 1                 1                 1                 1                 1                 1                 1                 1                 1                 1
     0.0106821111                 1                 1      0.9999998189      0.9944722375      0.8387564247      0.9994748543      0.9999999441                 1                 1                 1                 1                 1                 1                 1                 1                 1                 1
    0.01093254351                 1                 1      0.9999997946      0.9941464873       0.831813347      0.9994352506       0.999999936                 1                 1                 1                 1                 1                 1                 1                 1                 1                 1
    0.01118297593                 1                 1      0.9999997677       0.993806587      0.8246682741      0.9993933471       0.999999927                 1                 1                 1                 1                 1                 1                 1                 1                 1                 1
    0.01143340834                 1                 1      0.9999997381      0.9934519616      0.8173165327      0.9993490093      0.9999999168                 1                 1                 1                 1                 1                 1                 1                 1                 1                 1
    0.01168384075                 1                 1      0.9999997103      0.9930820029       0.809753404      0.9993020964      0.9999999067                 1                 1                 1                 1                 1                 1                 1                 1                 1                 1
    0.01193427317                 1                 1      0.9999996857      0.9926960722      0.8019741182      0.9992524653      0.9999998982                 1                 1                 1                 1                 1                 1                 1                 1                 1                 1
    0.01218470558                 1                 1      0.9999996604      0.9922935148      0.7939739454      0.9991999834      0.9999998901                 1                 1                 1                 1                 1                 1                 1                 1                 1                 1
    0.01243513799                 1                 1      0.9999996329      0.9918736006      0.7857479742       0.999144511      0.9999998815                 1                 1                 1                 1                 1                 1                 1                 1                 1                 1
    0.01268557041                 1                 1      0.9999996026      0.9914355629      0.7772913959      0.9990859105       0.999999872                 1                 1                 1                 1                 1                 1                 1                 1                 1                 1
    0.01293600282                 1                 1       0.999999569      0.9909785947      0.7685996242      0.9990240457      0.9999998615                 1                 1                 1                 1                 1                 1                 1                 1                 1                 1
    0.01318643523                 1                 1      0.9999995318      0.9905018476      0.7596684994      0.9989587791      0.9999998496                 1                 1                 1                 1                 1                 1                 1                 1                 1                 1
    0.01343686765                 1                 1      0.9999994907      0.9900044387      0.7504946993        0.99888997      0.9999998364                 1                 1                 1                 1                 1                 1                 1                 1                 1                 1
    0.01368730006                 1                 1      0.9999994452      0.9894854657      0.7410766294      0.9988174729      0.9999998216                 1                 1                 1                 1                 1                 1                 1                 1                 1                 1
    0.01393773247                 1                 1      0.9999993949      0.9889440422      0.7314168562      0.9987411372      0.9999998051                 1                 1                 1                 1                 1                 1                 1                 1                 1                 1
    0.01418816489                 1                 1      0.9999993393      0.9883794192      0.7215310898      0.9986608157      0.9999997866                 1                 1                 1                 1                 1                 1                 1                 1                 1                 1
     0.0144385973                 1                 1      0.9999992779       0.987791723      0.7115095262      0.9985764238      0.9999997659                 1                 1                 1                 1                 1                 1                 1                 1                 1                 1
    0.01468902971                 1                 1       0.999999175      0.9871953874      0.7030016414      0.9984888373      0.9999997282                 1                 1                 1                 1                 1                 1                 1                 1                 1                 1
    0.01493946213                 1                 1      0.9999990502      0.9866371297      0.7001419306      0.9984020083      0.9999996816                 1                 1                 1                 1                 1                 1                 1                 1                 1                 1
    0.01518989454                 1                 1       0.999998911      0.9861119013      0.6980574112      0.9983198258      0.9999996289                 1                 1                 1                 1                 1                 1                 1                 1                 1                 1
    0.01544032695                 1                 1      0.9999987621      0.9856084268      0.6960122495      0.9982435691      0.9999995718                 1                 1                 1                 1                 1                 1                 1                 1                 1                 1
    0.01569075937                 1                 1      0.9999986079      0.9851096066       0.693939946      0.9981713546      0.9999995119                 1                 1                 1                 1                 1                 1                 1                 1                 1                 1
    0.01594119178                 1                 1      0.9999984529      0.9846030484      0.6918164944      0.9980997839      0.9999994509                 1                 1                 1                 1                 1                 1                 1                 1                 1                 1
    0.01619162419                 1                 1      0.9999983008      0.9840833985      0.6896443146      0.9980259529      0.9999993903                 1                 1                 1                 1                 1                 1                 1                 1                 1                 1
    0.01644205661                 1                 1      0.9999981529      0.9835515701      0.6874409076       0.997948515      0.9999993306                 1                 1                 1                 1                 1                 1                 1                 1                 1                 1