# Probe 0 (2.4 0 1.5)
#           Probe                 0
#            Time
    1.1999904e-06      0.9999683232
  2.639965056e-06       0.999930307
  4.367944597e-06      0.9998846792
  6.441505713e-06      0.9998299138
   8.92973777e-06      0.9997641782
  1.191552707e-05      0.9996852715
  1.549838863e-05      0.9995905475
  1.979776087e-05      0.9994768255
  2.495674128e-05      0.9993402871
  3.114713435e-05      0.9991763373
  3.857523794e-05      0.9989794432
  4.748896225e-05      0.9987429342
  5.818543142e-05       0.998458783
  7.102064463e-05       0.998117326
  8.642131685e-05      0.9977069136
  0.0001049009832       0.997213432
  0.0001270765827      0.9966197889
  0.0001536896689       0.995905243
  0.0001856219625      0.9950448394
  0.0002239407148      0.9940079771
  0.0002699019884      0.9927580164
  0.0003250351347      0.9912495511
  0.0003911802278      0.9894267329
  0.0004705543394      0.9872204858
  0.0005658032734      0.9845455998
  0.0006799700095      0.9812993422
  0.0008169700928      0.9773441022
  0.0009814618316      0.9725042293
   0.001179117227       0.966547829
   0.001416111804      0.9591909902
   0.001666544217      0.9511681625
   0.001916976631      0.9429212198
   0.002167409044       0.934454574
   0.002417841458      0.9257459973
   0.002668273871      0.9167741877
   0.002918706284      0.9075240117
   0.003169138698      0.8979878025
   0.003419571111      0.8881631203
   0.003670003524      0.8780465332
   0.003920435938      0.8676293183
   0.004170868351      0.8568993145
   0.004421300765      0.8458450975
   0.004671733178      0.8344579939
   0.004922165591      0.8227306993
   0.005172598005      0.8106550014
   0.005423030418      0.7982213274
   0.005673462831      0.7854197294
   0.005923895245      0.7722404666
   0.006174327658      0.7586737537
   0.006424760072      0.7447094537
   0.006675192485      0.7303372142
   0.006925624898      0.7155467236
   0.007176057312      0.7003278242
   0.007426489725      0.6846704744
   0.007676922139      0.6685640549
   0.007927354552      0.6519979217
   0.008177786965      0.6349617617
   0.008428219379      0.6174457264
   0.008678651792      0.5994394853
   0.008929084205      0.5809324051
   0.009179516619      0.5619137683
   0.009429949032      0.5423729366
   0.009680381446      0.5222993281
   0.009930813859      0.5016823336
    0.01018124627      0.4805112421
    0.01043167869      0.4587752483
     0.0106821111      0.4364635141
    0.01093254351      0.4135652737
    0.01118297593      0.3900698989
    0.01143340834      0.3659669543
    0.01168384075      0.3412462679
    0.01193427317      0.3158979783
    0.01218470558       0.289912761
    0.01243513799      0.2632816284
    0.01268557041      0.2359964639
    0.01293600282      0.2080504138
    0.01318643523      0.1794386677
    0.01343686765      0.1501600435
    0.01368730006      0.1202205171
    0.01393773247     0.08964282539
    0.01418816489     0.05850161389
     0.0144385973     0.02716366973
    0.01468902971    0.002178972944
    0.01493946213  -0.0001982921282
    0.01518989454   4.900685875e-05
    0.01544032695   0.0001565798662
    0.01569075937   0.0001615931177
    0.01594119178   0.0001354053729
    0.01619162419   0.0001126871838
    0.01644205661   0.0001052215081
    0.01669248902   0.0001060808397
    0.01694292143   0.0001099727349
    0.01719335385   0.0001135812048
    0.01744378626   0.0001138926746
    0.01769421867   0.0001118204407
    0.01794465109   0.0001094819729
     0.0181950835    0.000107830672
    0.01844551591   0.0001064220057
    0.01869594833   0.0001046349862
    0.01894638074   0.0001025326592
    0.01919681315   0.0001004913173
    0.01944724557   9.863518844e-05
    0.01969767798   9.669796519e-05
    0.01994811039   9.449105821e-05
    0.02019854281   9.220058702e-05
    0.02044897522   9.017963963e-05
    0.02069940763   8.860149169e-05
    0.02094984005    8.73893023e-05
    0.02120027246   8.640887386e-05
    0.02145070487   8.562270338e-05
    0.02170113729   8.498223726e-05
     0.0219515697   8.461629408e-05
    0.02220200211   8.449075314e-05
    0.02245243453   8.430717876e-05
    0.02270286694   8.381513815e-05
    0.02295329935   8.305483031e-05
    0.02320373177   8.212551372e-05
    0.02345416418   8.097173073e-05
    0.02370459659   7.945904084e-05
    0.02395502901   7.756709638e-05
    0.02420546142   7.541995778e-05
    0.02445589384   7.316690474e-05
    0.02470632625   7.091825926e-05
    0.02495675866   6.876810329e-05
    0.02520719108   6.680662167e-05
    0.02545762349   6.508288012e-05
     0.0257080559   6.358003576e-05
    0.02595848832   6.223110376e-05
    0.02620892073   6.096477392e-05
    0.02645935314      5.973699e-05
    0.02670978556   5.855669159e-05
    0.02696021797   5.744096965e-05
    0.02721065038   5.634114271e-05
     0.0274610828   5.520911286e-05
    0.02771151521   5.401891385e-05
    0.02796194762   5.323704041e-05
    0.02821238004   5.248513249e-05
    0.02846281245   5.115438917e-05
    0.02871324486   5.001693872e-05
    0.02896367728   4.829653756e-05
    0.02921410969   4.576899304e-05
     0.0294645421   4.386552926e-05
    0.02971497452   4.235368936e-05
    0.02996540693   4.144094496e-05
    0.03021583934   4.037709913e-05
    0.03046627176   3.955770275e-05
    0.03071670417    3.81855367e-05
    0.03096713658   3.689371636e-05
      0.031217569   3.634193312e-05
    0.03146800141   3.564130628e-05
    0.03171843382   3.446271036e-05
    0.03196886624   3.869513793e-05
    0.03221929865    3.87630303e-05
    0.03246973106    3.83539874e-05
    0.03272016348    3.12647698e-05
    0.03297059589   3.618339223e-05
     0.0332210283   3.644771924e-05
    0.03347146072   3.606854893e-05
    0.03372189313   3.553708505e-05
    0.03397232554   2.760094434e-05
    0.03422275796   3.425241746e-05
    0.03447319037   3.438479744e-05
    0.03472362278   3.375652614e-05
     0.0349740552   3.318989223e-05
    0.03522448761   3.277816345e-05
    0.03547492002   3.247462836e-05
    0.03572535244    3.21784549e-05
    0.03597578485   3.184224367e-05
    0.03622621726   3.121825513e-05
    0.03647664968    3.04607797e-05
    0.03672708209    2.05076615e-05
     0.0369775145    2.80806905e-05
    0.03722794692   2.921809204e-05
    0.03747837933   2.964732765e-05
    0.03772881174   2.904487315e-05
    0.03797924416   2.723081714e-05
    0.03822967657   0.0006054607162
    0.03848010898    0.001391976055
     0.0387305414    0.002265189701
    0.03898097381     0.00319882693
    0.03923140622    0.004181846905
    0.03948183864    0.005165415615
    0.03973227105    0.006125206337
    0.03998270346    0.007045915258
    0.04023313588    0.007949849393
    0.04048356829    0.008877737624
     0.0407340007     0.00982158858
    0.04098443312     0.01073943842
    0.04123486553      0.0116016665
    0.04148529795     0.01240477503
    0.04173573036     0.01316787215
    0.04198616277     0.01390196923
    0.04223659519     0.01461793844
     0.0424870276     0.01531343076
    0.04273746001     0.01596719878
    0.04298789243      0.0165954842
    0.04323832484      0.0172230984
    0.04348875725     0.01786320072
    0.04373918967     0.01851438277
    0.04398962208     0.01917345697
    0.04424005449     0.01983945672
    0.04449048691     0.02051086087
    0.04474091932     0.02118202833
    0.04499135173     0.02185552288
    0.04524178415     0.02252805448
    0.04549221656     0.02312427364
    0.04574264897     0.02375770074
    0.04599308139     0.02440184344
     0.0462435138     0.02504836056
    0.04649394621     0.02569127784
    0.04674437863     0.02632441789
    0.04699481104     0.02694912534
    0.04724524345     0.02755861372
    0.04749567587     0.02815504583
    0.04774610828     0.02868366211
    0.04799654069     0.02917551203
    0.04824697311     0.02968874614
    0.04849740552     0.03020630961
    0.04874783793     0.03072032509
    0.04899827035     0.03122595672
    0.04924870276     0.03172111004
    0.04949913517     0.03216947827
    0.04974956759     0.03263969972
             0.05     0.03311441675
          0.05025     0.03358760032
           0.0505      0.0340552762
          0.05075     0.03451800046
            0.051     0.03497015345
          0.05125     0.03540895438
           0.0515     0.03583571208
          0.05175     0.03625658289
            0.052     0.03667625806
          0.05225     0.03709299554
           0.0525      0.0375018691
          0.05275     0.03789881959
            0.053     0.03828481033
          0.05325     0.03866546351
           0.0535     0.03904592329
          0.05375     0.03942904283
            0.054     0.03981739773
          0.05425     0.04020768376
           0.0545      0.0405893894
          0.05475     0.04096775752
            0.055     0.04134405018
          0.05525      0.0417225405
           0.0555     0.04209717656
          0.05575     0.04246505395
            0.056     0.04283324078
          0.05625     0.04320099889
           0.0565     0.04356091855
          0.05675     0.04391055939
            0.057     0.04425241419
          0.05725     0.04459391694
           0.0575     0.04493221103
          0.05775     0.04526715932
            0.058      0.0455983093
          0.05825     0.04592566709
           0.0585     0.04624592043
          0.05875      0.0465596148
            0.059     0.04686897761
          0.05925     0.04717369328
           0.0595     0.04747540326
          0.05975     0.04777496535
             0.06     0.04807188743
          0.06025     0.04836386672
           0.0605     0.04864935655
          0.06075     0.04893154224
            0.061     0.04921274802
          0.06125      0.0494942963
           0.0615     0.04977448116
          0.06175      0.0500512553
            0.062     0.05032330178
          0.06225      0.0505913901
           0.0625     0.05085524551
          0.06275     0.05111460835
            0.063     0.05136940638
          0.06325     0.05161927204
           0.0635     0.05186372128
          0.06375     0.05210220717
            0.064     0.05233480922
          0.06425     0.05256321374
           0.0645     0.05278921979
          0.06475      0.0530137969
            0.065     0.05323661365
          0.06525     0.05345685487
           0.0655     0.05367441756
          0.06575     0.05388949519
            0.066     0.05410240533
          0.06625     0.05431330842
           0.0665     0.05452221391
          0.06675     0.05472901371
            0.067     0.05493362945
          0.06725     0.05513627628
           0.0675     0.05533707696
          0.06775     0.05553605953
            0.068      0.0557330169
          0.06825     0.05592772078
           0.0685     0.05611965107
          0.06875     0.05630837388
            0.069     0.05649420386
          0.06925     0.05667783356
           0.0695     0.05685984043
          0.06975     0.05704034977
             0.07     0.05721904291
          0.07025       0.057395123
           0.0705     0.05756852088
          0.07075     0.05774006571
            0.071     0.05791024532
          0.07125     0.05808025788
           0.0715     0.05825070498
          0.07175     0.05842190451
            0.072     0.05859397414
          0.07225     0.05876609114
           0.0725      0.0589371529
          0.07275     0.05910689274
    0.07299772727     0.05927448202
    0.07324545455     0.05944271696
    0.07349090909       0.059610299
    0.07373636364     0.05977749099
    0.07397954545     0.05994121814
    0.07422272727     0.06010228671
    0.07446363636     0.06025945633
    0.07470454545      0.0604145539
    0.07494318182     0.06056609427
     0.0751795669     0.06071401893
    0.07541372192     0.06085857792
    0.07564787695     0.06100172247
    0.07587980194     0.06114240955
    0.07610951811     0.06128050621
    0.07633923428     0.06141690417
    0.07656674164     0.06155032807
      0.076794249      0.0616828057
    0.07701954756     0.06181440287
    0.07724484611     0.06194722238
    0.07746793586     0.06208018459
     0.0776910256      0.0622141919
    0.07791190653     0.06234720895
    0.07813278747     0.06248007419
    0.07835145959     0.06261124439
    0.07857013172     0.06274212337
    0.07878880384     0.06287279049
    0.07900524462     0.06300189545
     0.0792216854     0.06313078234
    0.07943812618     0.06325936395
    0.07965231236      0.0633862132
    0.07986649855     0.06351274317
    0.08007843014     0.06363782139
    0.08029036174      0.0637628492
    0.08050003874     0.06388625409
    0.08070748514     0.06400768189
    0.08091493153     0.06412830207
    0.08112014732     0.06424702781
    0.08132315649      0.0643642254
    0.08152616566     0.06448133551
    0.08172696821     0.06459705889
    0.08192777075     0.06471263976
    0.08212636668     0.06482686815
     0.0823249626     0.06494108523
    0.08252135191     0.06505404018
    0.08271774121     0.06516696249
     0.0829119239     0.06527853396
    0.08310610658     0.06538997089
    0.08329808264     0.06549996443
     0.0834900587     0.06560976236
    0.08367982814     0.06571813878
    0.08386959758     0.06582637068
    0.08405936702     0.06593419061
    0.08424690388      0.0660403438
    0.08443444074     0.06614601381
     0.0846219776     0.06625154625
    0.08480725498     0.06635619313
    0.08499253236     0.06646130026
    0.08517780973     0.06656601534
    0.08536308711     0.06667028993
    0.08554604852     0.06677168712
    0.08572900993     0.06687174026
    0.08591197135     0.06697102569
    0.08609493276     0.06707013787
    0.08627551805     0.06716812779
    0.08645610333     0.06726651619
    0.08663668862     0.06736511081
    0.08681727391     0.06746400317
    0.08699541886     0.06756190859
    0.08717356381     0.06766019281
    0.08735170875     0.06775887154
    0.08752737947     0.06785662311
    0.08770305018     0.06795460196
    0.08787872089     0.06805240478
     0.0880543916     0.06814974009
    0.08822751636     0.06824500847
    0.08840064112     0.06833972686
    0.08857376588      0.0684342898
    0.08874430669     0.06852742876
    0.08891484749     0.06862066136
     0.0890853883     0.06871391102
    0.08925592911     0.06880678553
    0.08942380522     0.06889791257
    0.08959168133     0.06898897639
    0.08975955743     0.06908024417
    0.08992743354     0.06917183116
    0.09009255758     0.06926212299
    0.09025768162     0.06935236463
    0.09042280566     0.06944245995
     0.0905879297     0.06953211444
    0.09075020678      0.0696199726
    0.09091248385     0.06970763501
    0.09107476092     0.06979508598
      0.091237038     0.06988227449
    0.09139636458     0.06996754421
    0.09155569116     0.07005242582
    0.09171501774     0.07013690006
    0.09187434433     0.07022097501
    0.09203367091     0.07030454593
    0.09219299749     0.07038740868
    0.09234913754     0.07046791457
    0.09250527759     0.07054772944
    0.09266141764     0.07062729238
    0.09281755769     0.07070633774
    0.09297369774      0.0707845567
    0.09312983779     0.07086194209
    0.09328250806     0.07093725101
    0.09343517833     0.07101298379
     0.0935878486     0.07108891302
    0.09374051888     0.07116446709
    0.09389318915      0.0712395692
    0.09404585942     0.07131395629
    0.09419852969      0.0713873975
    0.09434728534     0.07145797127
    0.09449604099     0.07152772433
    0.09464479664     0.07159749387
    0.09479355229     0.07166660718
    0.09494230793     0.07173624473
    0.09509106358     0.07180639073
    0.09523544407     0.07187468182
    0.09537982455     0.07194289737
    0.09552420503     0.07201094327
    0.09566858552      0.0720785898
      0.095812966      0.0721456297
    0.09595734648     0.07221252646
    0.09610172696      0.0722789383
    0.09624610745     0.07234467031
    0.09639048793     0.07241014233
    0.09653486841     0.07247482203
    0.09667347368     0.07253637326
    0.09681207894     0.07259746556
     0.0969506842     0.07265818642
    0.09708928947     0.07271865087
    0.09722789473     0.07277896051
    0.09736649999     0.07283915385
    0.09750510526     0.07289918354
    0.09764371052     0.07295939106
    0.09778231578     0.07301886301
    0.09792092105     0.07307847536
    0.09805952631     0.07313756721
    0.09819813157     0.07319576786
    0.09833673684     0.07325359687
     0.0984753421     0.07331214819
    0.09861394736     0.07337083371
    0.09875255263     0.07342891412
    0.09889115789       0.073486337
    0.09902976316     0.07354268556
    0.09916836842     0.07359884808
    0.09930697368     0.07365433769
    0.09944557895     0.07370912879
    0.09958418421     0.07376329694
    0.09972278947     0.07381713441
    0.09986139474     0.07387068472
              0.1     0.07392417643
     0.1001319261     0.07397465398
     0.1002635042     0.07402524436
      0.100394735     0.07407570754
     0.1005256196     0.07412601492
     0.1006561589     0.07417593558
     0.1007863537     0.07422574217
      0.100916205     0.07427492057
     0.1010457137     0.07432363427
     0.1011748807     0.07437191899
     0.1013040477     0.07441990365
     0.1014328729     0.07446767913
     0.1015613574     0.07451508658
      0.101689502     0.07456193519
     0.1018173075     0.07460841763
      0.101944775     0.07465465643
     0.1020719052     0.07470072875
     0.1021986991     0.07474665481
     0.1023251576       0.074792506
     0.1024512815     0.07483809313
     0.1025770717     0.07488330565
     0.1027025292     0.07492812501
     0.1028276548     0.07497260965
     0.1029524494     0.07501684763
     0.1030769138     0.07506089961
     0.1032010489     0.07510476552
     0.1033248557     0.07514838229
     0.1034480091     0.07519153156
     0.1035708376     0.07523421488
      0.103693342     0.07527636989
     0.1038155231     0.07531795393
     0.1039373819     0.07535893917
     0.1040589191     0.07539937684
     0.1041801357     0.07543943136
     0.1043010325     0.07547926807
     0.1044216102     0.07551903144
      0.104542188     0.07555892259
     0.1046624467     0.07559892071
     0.1047823873     0.07563903484
     0.1049020106      0.0756791991
     0.1050213175     0.07571932601
     0.1051403087      0.0757593473
     0.1052589852     0.07579923161
     0.1053773476     0.07583896812
      0.105495397     0.07587854448
      0.105613134     0.07591792975
     0.1057305596      0.0759570801
     0.1058476745     0.07599596067
     0.1059644796     0.07603457717
     0.1060809757     0.07607298709
     0.1061971636     0.07611128703
     0.1063133515     0.07614968006
     0.1064292312     0.07618813529
     0.1065448035     0.07622667052
     0.1066600693     0.07626525257
     0.1067750293     0.07630380916
     0.1068896844     0.07634225119
     0.1070040354     0.07638048484
      0.107118083     0.07641842544
     0.1072318282     0.07645601398
     0.1073452716     0.07649322995
     0.1074584141     0.07653009261
     0.1075715566     0.07656675423
     0.1076843982     0.07660318069
     0.1077969397     0.07663941797
     0.1079091819     0.07667548675
     0.1080214241     0.07671148029
      0.108133367     0.07674730099
     0.1082450113     0.07678296759
      0.108356358     0.07681852104
     0.1084674077     0.07685401728
     0.1085784574     0.07688961568
     0.1086892102     0.07692528174
     0.1087996668     0.07696104652
     0.1089098281     0.07699689657
     0.1090196949     0.07703275976
     0.1091292679     0.07706850891
     0.1092388409     0.07710408414
     0.1093481202     0.07713925748
     0.1094571064     0.07717397173
     0.1095660927     0.07720836724
      0.109674786     0.07724247874
     0.1097831871     0.07727647654
     0.1098915882     0.07731061559
     0.1099996972     0.07734490054
     0.1101075147     0.07737932562
     0.1102150416     0.07741379048
     0.1103222787     0.07744814424
     0.1104292267     0.07748224634
     0.1105358865     0.07751601381
     0.1106425463     0.07754953089
     0.1107489178     0.07758276865
     0.1108550018     0.07761582514
     0.1109607991      0.0776487948
     0.1110665964     0.07768183523
     0.1111721069     0.07771488522
     0.1112776175     0.07774803334
     0.1113828414     0.07778117548
     0.1114880652     0.07781439265
     0.1115930024     0.07784759932
     0.1116976536     0.07788081301
     0.1118023048     0.07791414674
     0.1119066701     0.07794752723
     0.1120110354      0.0779810561
     0.1121151148       0.078014647
     0.1122191941     0.07804839921
     0.1123229875     0.07808222852
     0.1124264958     0.07811613737
     0.1125300041     0.07815020384
     0.1126332272     0.07818429061
     0.1127364504     0.07821841797
     0.1128393883     0.07825239698
      0.112942042     0.07828613672
     0.1130446956     0.07831967474
     0.1131470648      0.0783529241
     0.1132491505     0.07838595806
     0.1133512362     0.07841898258
     0.1134530384     0.07845201894
     0.1135548405     0.07848522988
      0.113656359     0.07851852709
     0.1137578776     0.07855194327
     0.1138591126     0.07858528256
     0.1139603475      0.0786185284
     0.1140612989     0.07865149819
     0.1141619676     0.07868414207
     0.1142626362     0.07871654435
     0.1143630221     0.07874864537
     0.1144631259     0.07878050666
     0.1145629486     0.07881220652
     0.1146627713     0.07884391809
     0.1147623128     0.07887563098
     0.1148615739     0.07890740978
      0.114960835     0.07893938719
     0.1150598156     0.07897148071
     0.1151585167     0.07900365963
     0.1152572178     0.07903594754
     0.1153556393     0.07906815948
     0.1154540608     0.07910028826
     0.1155522026     0.07913216639
     0.1156500657     0.07916376047
     0.1157479288     0.07919516583
      0.115845513     0.07922632635
     0.1159428193     0.07925729566
     0.1160398483     0.07928813801
     0.1161366008     0.07931892082
     0.1162333534     0.07934979418
     0.1163298295     0.07938071654
       0.11642603     0.07941171025
     0.1165222305     0.07944285506
     0.1166181553     0.07947402185
     0.1167140802     0.07950524175
     0.1168097294     0.07953636727
     0.1169053786     0.07956745138
     0.1170007521     0.07959840284
     0.1170961257     0.07962935016
     0.1171912236     0.07966026841
     0.1172863215     0.07969131418
     0.1173811437     0.07972244082
     0.1174756911     0.07975364997
     0.1175702386     0.07978498883
     0.1176645111     0.07981628603
     0.1177585096     0.07984745011
     0.1178525081     0.07987849459
     0.1179462326     0.07990928926
     0.1180399571     0.07993993368
     0.1181334075     0.07997039569
     0.1182265847     0.08000076952
     0.1183197618     0.08003124877
      0.118412939     0.08006191402
     0.1185058421     0.08009270742
     0.1185987452     0.08012369696
     0.1186913743     0.08015472328
     0.1187840034      0.0801857922
     0.1188766325     0.08021683582
     0.1189689867     0.08024773995
     0.1190613409     0.08027862391
     0.1191534202      0.0803094593
     0.1192454996     0.08034041729
      0.119337304     0.08037147153
     0.1194291085     0.08040274641
     0.1195206381     0.08043413801
     0.1196121677     0.08046569648
     0.1197034225      0.0804972665
     0.1197946772     0.08052888598
     0.1198856571     0.08056042459
      0.119976637     0.08059197318
      0.120067342     0.08062345362
     0.1201580471     0.08065498372
     0.1202484772     0.08068648047
     0.1203389074     0.08071803306
     0.1204290627     0.08074951864
      0.120519218     0.08078099474
     0.1206090984     0.08081233309
     0.1206989788     0.08084362018
     0.1207885844      0.0808747825
       0.12087819     0.08090596538
     0.1209675207     0.08093713695
     0.1210568514     0.08096844973
     0.1211459072     0.08099983287
     0.1212349631     0.08103136971
     0.1213237441     0.08106291864
      0.121412525     0.08109452108
     0.1215010312     0.08112603266
     0.1215895373     0.08115753082
     0.1216777685     0.08118892909
     0.1217659998     0.08122035987
     0.1218539562     0.08125176331
     0.1219419125     0.08128330054
     0.1220295941     0.08131488941
     0.1221172756     0.08134659741
     0.1222046822     0.08137825975
     0.1222920889     0.08140989501
     0.1223792207     0.08144133273
     0.1224663525     0.08147263028
     0.1225534843     0.08150377832
     0.1226403404     0.08153470179
     0.1227271964     0.08156555162
     0.1228140525     0.08159639763
     0.1229006319     0.08162721047
     0.1229872114     0.08165814375
     0.1230737908     0.08168923799
     0.1231603703      0.0817205251
     0.1232469497     0.08175203785
     0.1233332499     0.08178371382
     0.1234195501     0.08181570395
     0.1235058502     0.08184806026
     0.1235921504     0.08188082124
     0.1236781694     0.08191388714
     0.1237641885     0.08194733256
     0.1238502075     0.08198108923
     0.1239362266     0.08201506551
     0.1240219627     0.08204905463
     0.1241076988     0.08208309148
     0.1241934349     0.08211712876
      0.124279171     0.08215114892
     0.1243646222     0.08218504214
     0.1244500735      0.0822189304
     0.1245355248     0.08225281434
      0.124620976     0.08228667712
     0.1247061405     0.08232037167
      0.124791305     0.08235397054
     0.1248764696     0.08238744225
     0.1249613463     0.08242066325
     0.1250462231      0.0824537669
     0.1251308122     0.08248669958
     0.1252154013     0.08251959701
     0.1252999904      0.0825525727
     0.1253842907     0.08258563498
     0.1254685911     0.08261898265
     0.1255526028     0.08265254087
     0.1256366145     0.08268641378
     0.1257206261     0.08272054344
     0.1258046378     0.08275483499
     0.1258883588     0.08278905725
     0.1259720798     0.08282321688
     0.1260558007     0.08285715546
     0.1261395217     0.08289076663
       0.12622295     0.08292391169
     0.1263063782     0.08295672518
     0.1263898065     0.08298926161
     0.1264732347     0.08302160017
     0.1265563681     0.08305371544
     0.1266395016     0.08308580231
     0.1267223402     0.08311787483
     0.1268051789     0.08315011702
     0.1268880175     0.08318247903
     0.1269705603     0.08321477738
     0.1270531031     0.08324706532
     0.1271353501     0.08327915858
      0.127217597     0.08331110586
     0.1272995481     0.08334273101
     0.1273814992     0.08337413087
     0.1274634503     0.08340540137
     0.1275451044     0.08343654679
     0.1276267586     0.08346771837
     0.1277084128     0.08349896683
     0.1277900669     0.08353042319
      0.127871422     0.08356205228
     0.1279527771     0.08359398599
     0.1280341321     0.08362614674
      0.128115187     0.08365834003
     0.1281962419     0.08369063135
     0.1282772967     0.08372297236
     0.1283580503     0.08375518522
     0.1284388038     0.08378731378
      0.128519256     0.08381914987
     0.1285997083     0.08385072413
     0.1286801605     0.08388196169
     0.1287603103     0.08391270115
       0.12884046     0.08394305359
     0.1289206098     0.08397305201
      0.129000456     0.08401108488
     0.1290803022     0.08405172057
     0.1291601483     0.08409318682
     0.1292396897     0.08413479439
     0.1293192312     0.08416782233
     0.1293987726      0.0841981059
     0.1294780081     0.08422748009
     0.1295572436     0.08425668924
     0.1296364791     0.08428590634
     0.1297157145     0.08431513974
       0.12979495     0.08434433705
      0.129873876     0.08437331928
      0.129952802     0.08440215023
      0.130031728     0.08443080669
     0.1301106539     0.08445930335
     0.1301895799     0.08448768134
     0.1302685059     0.08451602953
     0.1303471174     0.08454429655
      0.130425729      0.0845726274
     0.1305043405     0.08460101075
      0.130582952     0.08462938612
     0.1306615635     0.08465765792
     0.1307398568     0.08468561771
     0.1308181501     0.08471331275
     0.1308964433      0.0847407275
     0.1309747366     0.08477678638
      0.131052709     0.08481545859
     0.1311306814     0.08484603892
     0.1312086538     0.08487399983
     0.1312866262     0.08490119603
     0.1313645986     0.08492824056
     0.1314422461     0.08495518684
     0.1315198936     0.08498214162
     0.1315975411     0.08500903743
     0.1316751886     0.08503579883
     0.1317528361     0.08507137771
     0.1318304836      0.0851097166
     0.1319081311     0.08514884672
     0.1319854468     0.08518801126
     0.1320627625     0.08522725257
     0.1321400781     0.08526659003
     0.1322173938     0.08530607027
     0.1322947095     0.08533633988
      0.132371689     0.08536369611
     0.1324486685     0.08539037733
     0.1325256481     0.08541703021
     0.1326026276     0.08544380365
     0.1326796071     0.08547068525
      0.132756246       0.085506865
     0.1328328849     0.08554611198
     0.1329095238     0.08558631828
     0.1329861627     0.08562680356
      0.133062458     0.08566719475
     0.1331387532     0.08570764058
     0.1332150484     0.08574815891
     0.1332913437     0.08577906839
     0.1333676389     0.08580693507
     0.1334435858     0.08583381051
     0.1335195326     0.08586051149
     0.1335954795     0.08589682632
     0.1336714263     0.08593628885
     0.1337473732     0.08597674282
       0.13382332     0.08601748071
      0.133898912     0.08605810867
      0.133974504     0.08609879425
     0.1340500959     0.08613958115
     0.1341256879      0.0861805278
     0.1342012799     0.08622168301
     0.1342768718     0.08626306762
     0.1343521021     0.08630446697
     0.1344273324     0.08634602923
     0.1345025626     0.08638767899
     0.1345777929     0.08642933284