# Region type :   patch explosionChamber
# Faces           : 37875
# Area            : 9.6770513364e+01
# Scale factor    : 1.0000000000e+00
# Time            	min(T)
1.19999040008e-06 	2.9314999947e+02
2.63996505619e-06 	2.9314999883e+02
4.36794459704e-06 	2.9314999806e+02
6.44150571252e-06 	2.9314999714e+02
8.92973776977e-06 	2.9314999604e+02
1.19155270705e-05 	2.9314999471e+02
1.54983886296e-05 	2.9314999311e+02
1.97977608653e-05 	2.9314999118e+02
2.49567412781e-05 	2.9314998885e+02
3.11471343486e-05 	2.9314998604e+02
3.8575237941e-05  	2.9314998263e+02
4.74889622518e-05 	2.9314997846e+02
5.81854314247e-05 	2.9314997336e+02
7.10206446266e-05 	2.9314996705e+02
8.64213168522e-05 	2.9314995919e+02
0.000104900983155 	2.9314994933e+02
0.000127076582718 	2.9314993692e+02
0.000153689668853 	2.9314991054e+02
0.000185621962467 	2.9314986331e+02
0.000223940714803 	2.9314980582e+02
0.000269901988382 	2.9314974971e+02
0.000325035134736 	2.9314971882e+02
0.000391180227766 	2.9314970271e+02
0.000470554339401 	2.9314967219e+02
0.000565803273364 	2.9314969642e+02
0.000679970009453 	2.9314977185e+02
0.00081697009276  	2.9314979092e+02
0.00098146183158  	2.9314980260e+02
0.00117911722742  	2.9314978377e+02
0.00141611180399  	2.9314974459e+02
0.00166654421737  	2.9314968570e+02
0.00191697663075  	2.9314964642e+02
0.00216740904413  	2.9314959900e+02
0.00241784145751  	2.9314953354e+02
0.00266827387089  	2.9314945608e+02
0.00291870628428  	2.9314937834e+02
0.00316913869766  	2.9314930791e+02
0.00341957111104  	2.9314924458e+02
0.00367000352442  	2.9314918501e+02
0.0039204359378   	2.9314912689e+02
0.00417086835118  	2.9314907150e+02
0.00442130076456  	2.9314902487e+02
0.00467173317795  	2.9314899973e+02
0.00492216559133  	2.9314901933e+02
0.00517259800471  	2.9314912140e+02
0.00542303041809  	2.9314936292e+02
0.00567346283147  	2.9314982754e+02
0.00592389524485  	2.9314994992e+02
0.00617432765824  	2.9313491284e+02
0.00642476007162  	2.9312389051e+02
0.006675192485    	2.9311181759e+02
0.00692562489838  	2.9310461256e+02
0.00717605731176  	2.9310000972e+02
0.00742648972514  	2.9309638496e+02
0.00767692213852  	2.9309467568e+02
0.00792735455191  	2.9309361985e+02
0.00817778696529  	2.9309381851e+02
0.00842821937867  	2.9309472057e+02
0.00867865179205  	2.9309855263e+02
0.00892908420543  	2.9310248108e+02
0.00917951661881  	2.9310880049e+02
0.0094299490322   	2.9310373076e+02
0.00968038144558  	2.9309235227e+02
0.00993081385896  	2.9308331423e+02
0.0101812462723   	2.9307350294e+02
0.0104316786857   	2.9306683749e+02
0.0106821110991   	2.9306587564e+02
0.0109325435125   	2.9306736177e+02
0.0111829759259   	2.9307330621e+02
0.0114334083392   	2.9308370507e+02
0.0116838407526   	2.9309626899e+02
0.011934273166    	2.9308657093e+02
0.0121847055794   	2.9305744644e+02
0.0124351379928   	2.9303801540e+02
0.0126855704062   	2.9304094013e+02
0.0129360028195   	2.9306114463e+02
0.0131864352329   	2.9309458070e+02
0.0134368676463   	2.9312927546e+02
0.0136873000597   	2.9312382521e+02
0.0139377324731   	2.9311137722e+02
0.0141881648864   	2.9308949407e+02
0.0144385972998   	2.9306891784e+02
0.0146890297132   	2.9305443787e+02
0.0149394621266   	2.9304529663e+02
0.01518989454     	2.9304078595e+02
0.0154403269534   	2.9303905988e+02
0.0156907593667   	2.9303940345e+02
0.0159411917801   	2.9304097875e+02
0.0161916241935   	2.9304285260e+02
0.0164420566069   	2.9304418229e+02
0.0166924890203   	2.9304457326e+02
0.0169429214336   	2.9304401144e+02
0.017193353847    	2.9304246698e+02
0.0174437862604   	2.9303976380e+02
0.0176942186738   	2.9303582485e+02
0.0179446510872   	2.9303674417e+02
0.0181950835005   	2.9302260678e+02
0.0184455159139   	2.9301181690e+02
0.0186959483273   	2.9300669634e+02
0.0189463807407   	2.9299784954e+02
0.0191968131541   	2.9298449620e+02
0.0194472455675   	2.9301083523e+02
0.0196976779808   	2.9296396277e+02
0.0199481103942   	2.9297480097e+02
0.0201985428076   	2.9298769472e+02
0.020448975221    	2.9297815947e+02
0.0206994076344   	2.9297883003e+02
0.0209498400477   	2.9298462965e+02
0.0212002724611   	2.9298176747e+02
0.0214507048745   	2.9297308373e+02
0.0217011372879   	2.9297106188e+02
0.0219515697013   	2.9295367403e+02
0.0222020021147   	2.9294113244e+02
0.022452434528    	2.9292926955e+02
0.0227028669414   	2.9291548818e+02
0.0229532993548   	2.9289708945e+02
0.0232037317682   	2.9287761804e+02
0.0234541641816   	2.9286394119e+02
0.0237045965949   	2.9285636713e+02
0.0239550290083   	2.9285194044e+02
0.0242054614217   	2.9285014104e+02
0.0244558938351   	2.9285196003e+02
0.0247063262485   	2.9285690912e+02
0.0249567586618   	2.9286266223e+02
0.0252071910752   	2.9286660982e+02
0.0254576234886   	2.9286695156e+02
0.025708055902    	2.9286290014e+02
0.0259584883154   	2.9285446629e+02
0.0262089207288   	2.9284225373e+02
0.0264593531421   	2.9282975014e+02
0.0267097855555   	2.9281381438e+02
0.0269602179689   	2.9279858448e+02
0.0272106503823   	2.9278356213e+02
0.0274610827957   	2.9277129533e+02
0.027711515209    	2.9276599354e+02
0.0279619476224   	2.9276708573e+02
0.0282123800358   	2.9276919957e+02
0.0284628124492   	2.9277094487e+02
0.0287132448626   	2.9278107904e+02
0.028963677276    	2.9277837876e+02
0.0292141096893   	2.9277699235e+02
0.0294645421027   	2.9277004105e+02
0.0297149745161   	2.9276360687e+02
0.0299654069295   	2.9275884284e+02
0.0302158393429   	2.9275504910e+02
0.0304662717562   	2.9275159643e+02
0.0307167041696   	2.9274816921e+02
0.030967136583    	2.9274443479e+02
0.0312175689964   	2.9273979686e+02
0.0314680014098   	2.9273367043e+02
0.0317184338231   	2.9272585126e+02
0.0319688662365   	2.9271652390e+02
0.0322192986499   	2.9270597659e+02
0.0324697310633   	2.9269436547e+02
0.0327201634767   	2.9268179761e+02
0.0329705958901   	2.9266888520e+02
0.0332210283034   	2.9265676774e+02
0.0334714607168   	2.9264579489e+02
0.0337218931302   	2.9263485217e+02
0.0339723255436   	2.9262284810e+02
0.034222757957    	2.9261042646e+02
0.0344731903703   	2.9259934672e+02
0.0347236227837   	2.9259044351e+02
0.0349740551971   	2.9258305591e+02
0.0352244876105   	2.9257631077e+02
0.0354749200239   	2.9256964521e+02
0.0357253524373   	2.9256224149e+02
0.0359757848506   	2.9255341248e+02
0.036226217264    	2.9254376641e+02
0.0364766496774   	2.9252598603e+02
0.0367270820908   	2.9251805039e+02
0.0369775145042   	2.9250256898e+02
0.0372279469175   	2.9247664982e+02
0.0374783793309   	2.9244629069e+02
0.0377288117443   	2.9242289802e+02
0.0379792441577   	2.9239452302e+02
0.0382296765711   	2.9237473540e+02
0.0384801089845   	2.9235909853e+02
0.0387305413978   	2.9234137546e+02
0.0389809738112   	2.9232243285e+02
0.0392314062246   	2.9230336673e+02
0.039481838638    	2.9228377322e+02
0.0397322710514   	2.9226536421e+02
0.0399827034647   	2.9224739857e+02
0.0402331358781   	2.9221398946e+02
0.0404835682915   	2.9218266551e+02
0.0407340007049   	2.9215333803e+02
0.0409844331183   	2.9212202980e+02
0.0412348655316   	2.9208835801e+02
0.041485297945    	2.9205272388e+02
0.0417357303584   	2.9201715148e+02
0.0419861627718   	2.9198362058e+02
0.0422365951852   	2.9195075474e+02
0.0424870275986   	2.9191767833e+02
0.0427374600119   	2.9188267256e+02
0.0429878924253   	2.9184549092e+02
0.0432383248387   	2.9181019653e+02
0.0434887572521   	2.9177721288e+02
0.0437391896655   	2.9174499515e+02
0.0439896220788   	2.9171245014e+02
0.0442400544922   	2.9168163092e+02
0.0444904869056   	2.9165271397e+02
0.044740919319    	2.9162443244e+02
0.0449913517324   	2.9159464764e+02
0.0452417841458   	2.9156409773e+02
0.0454922165591   	2.9152734171e+02
0.0457426489725   	2.9149725356e+02
0.0459930813859   	2.9146590041e+02
0.0462435137993   	2.9143518311e+02
0.0464939462127   	2.9140244650e+02
0.046744378626    	2.9136490505e+02
0.0469948110394   	2.9132975056e+02
0.0472452434528   	2.9129844330e+02
0.0474956758662   	2.9126645192e+02
0.0477461082796   	2.9123715473e+02
0.0479965406929   	2.9120489908e+02
0.0482469731063   	2.9117652056e+02
0.0484974055197   	2.9115092571e+02
0.0487478379331   	2.9111562613e+02
0.0489982703465   	2.9108001769e+02
0.0492487027599   	2.9104852541e+02
0.0494991351732   	2.9101306880e+02
0.0497495675866   	2.9098132845e+02
0.05              	2.9095329506e+02
0.05025           	2.9092389360e+02
0.0505            	2.9089155937e+02
0.05075           	2.9085866543e+02
0.051             	2.9082897560e+02
0.05125           	2.9080100602e+02
0.0515            	2.9077646180e+02
0.05175           	2.9075349710e+02
0.052             	2.9073385040e+02
0.05225           	2.9071296084e+02
0.0525            	2.9068970812e+02
0.05275           	2.9066325238e+02
0.053             	2.9063517302e+02
0.05325           	2.9060662538e+02
0.0535            	2.9058129000e+02
0.05375           	2.9055752076e+02
0.054             	2.9053665906e+02
0.05425           	2.9051881821e+02
0.0545            	2.9050248836e+02
0.05475           	2.9048553970e+02
0.055             	2.9047252092e+02
0.05525           	2.9045688134e+02
0.0555            	2.9043817923e+02
0.05575           	2.9041810015e+02
0.056             	2.9039743210e+02
0.05625           	2.9037477357e+02
0.0565            	2.9035270453e+02
0.05675           	2.9033906592e+02
0.057             	2.9032645748e+02
0.05725           	2.9031871296e+02
0.0575            	2.9030807394e+02
0.05775           	2.9029508059e+02
0.058             	2.9028193483e+02
0.05825           	2.9026867415e+02
0.0585            	2.9024260664e+02
0.05875           	2.9021251086e+02
0.059             	2.9018289299e+02
0.05925           	2.9015375974e+02
0.0595            	2.9012460484e+02
0.05975           	2.9009362334e+02
0.06              	2.9005835336e+02
0.06025           	2.9002342179e+02
0.0605            	2.8998892359e+02
0.06075           	2.8995587489e+02
0.061             	2.8992568169e+02
0.06125           	2.8989892379e+02
0.0615            	2.8987402272e+02
0.06175           	2.8984653436e+02
0.062             	2.8981161371e+02
0.06225           	2.8977121970e+02
0.0625            	2.8973328662e+02
0.06275           	2.8970382909e+02
0.063             	2.8968258824e+02
0.06325           	2.8966276276e+02
0.0635            	2.8963670017e+02
0.06375           	2.8960110630e+02
0.064             	2.8956276767e+02
0.06425           	2.8952693281e+02
0.0645            	2.8949717118e+02
0.06475           	2.8947138157e+02
0.065             	2.8944413350e+02
0.06525           	2.8941114913e+02
0.0655            	2.8937496519e+02
0.06575           	2.8934075311e+02
0.066             	2.8931278902e+02
0.06625           	2.8929064499e+02
0.0665            	2.8926911780e+02
0.06675           	2.8924541176e+02
0.067             	2.8921967555e+02
0.06725           	2.8919534987e+02
0.0675            	2.8917352922e+02
0.06775           	2.8915377340e+02
0.068             	2.8913440765e+02
0.06825           	2.8911306761e+02
0.0685            	2.8908863052e+02
0.06875           	2.8906335316e+02
0.069             	2.8903753418e+02
0.06925           	2.8901217208e+02
0.0695            	2.8898787191e+02
0.06975           	2.8896433864e+02
0.07              	2.8893981511e+02
0.07025           	2.8891243315e+02
0.0705            	2.8888319025e+02
0.07075           	2.8885375350e+02
0.071             	2.8882438275e+02
0.07125           	2.8879434581e+02
0.0715            	2.8876455416e+02
0.07175           	2.8873682987e+02
0.072             	2.8871215412e+02
0.07225           	2.8868980088e+02
0.0725            	2.8867000362e+02
0.07275           	2.8865108049e+02
0.073             	2.8862816747e+02
0.07325           	2.8860255229e+02
0.0735            	2.8857868617e+02
0.07375           	2.8855759131e+02
0.074             	2.8853900442e+02
0.07425           	2.8852268846e+02
0.0745            	2.8850577692e+02
0.07475           	2.8848494836e+02
0.075             	2.8845979763e+02
0.07525           	2.8843250897e+02
0.0755            	2.8840640139e+02
0.07575           	2.8838416124e+02
0.076             	2.8836629426e+02
0.07625           	2.8834989824e+02
0.0765            	2.8833083010e+02
0.07675           	2.8830714858e+02
0.077             	2.8828099883e+02
0.07725           	2.8825722353e+02
0.0775            	2.8823934865e+02
0.07775           	2.8822741676e+02
0.078             	2.8821798576e+02
0.07825           	2.8820784098e+02
0.0785            	2.8819593477e+02
0.07875           	2.8818159172e+02
0.079             	2.8816526107e+02
0.07925           	2.8814813013e+02
0.0795            	2.8813202670e+02
0.07975           	2.8811914396e+02
0.08              	2.8810997030e+02
0.08025           	2.8810257358e+02
0.0805            	2.8809397801e+02
0.08075           	2.8808276459e+02
0.081             	2.8807034518e+02
0.08125           	2.8805890507e+02
0.0815            	2.8804896462e+02
0.08175           	2.8803937652e+02
0.082             	2.8802775041e+02
0.08225           	2.8801415429e+02
0.0825            	2.8800028798e+02
0.08275           	2.8798863276e+02
0.083             	2.8798097252e+02
0.08325           	2.8797719508e+02
0.0835            	2.8797577726e+02
0.0837462686567   	2.8797404821e+02
0.0839925373134   	2.8797108894e+02
0.0842388059701   	2.8796830745e+02
0.0844850746269   	2.8796604525e+02
0.0847274953358   	2.8796603858e+02
0.0849699160448   	2.8796950640e+02
0.0852123367537   	2.8797582293e+02
0.0854547574627   	2.8798350824e+02
0.0856932040617   	2.8799057999e+02
0.0859316506606   	2.8799774626e+02
0.0861700972596   	2.8800621709e+02
0.0864085438586   	2.8801725781e+02
0.0866428793093   	2.8802956269e+02
0.08687721476     	2.8804140743e+02
0.0871115502107   	2.8805021349e+02
0.0873458856614   	2.8805528549e+02
0.0875802211121   	2.8803995946e+02
0.0878102170175   	2.8801496771e+02
0.0880402129228   	2.8799050806e+02
0.0882702088281   	2.8796789266e+02
0.0884957817353   	2.8794500031e+02
0.0887213546424   	2.8792331064e+02
0.0889469275496   	2.8790416988e+02
0.0891679889986   	2.8788557331e+02
0.0893890504476   	2.8786729535e+02
0.0896101118966   	2.8784861389e+02
0.0898311733456   	2.8782943368e+02
0.0900475313595   	2.8780939103e+02
0.0902638893735   	2.8779082017e+02
0.0904802473874   	2.8777417579e+02
0.0906966054013   	2.8775859370e+02
0.0909129634152   	2.8774281246e+02
0.0911242898474   	2.8772409976e+02
0.0913356162796   	2.8770426452e+02
0.0915469427119   	2.8768474539e+02
0.0917582691441   	2.8766515716e+02
0.0919695955763   	2.8764501004e+02
0.0921809220085   	2.8762468571e+02
0.0923866872188   	2.8760272393e+02
0.0925924524291   	2.8758164648e+02
0.0927982176394   	2.8756267940e+02
0.0930039828497   	2.8754452204e+02
0.09320974806     	2.8752563193e+02
0.0934155132703   	2.8750518548e+02
0.0936150431712   	2.8748093275e+02
0.0938145730721   	2.8745562454e+02
0.094014102973    	2.8743034937e+02
0.0942136328739   	2.8740502906e+02
0.0944131627748   	2.8738013371e+02
0.0946126926757   	2.8735641632e+02
0.0948122225766   	2.8733482153e+02
0.0950043624812   	2.8731272775e+02
0.0951965023857   	2.8729234743e+02
0.0953886422903   	2.8727435316e+02
0.0955807821949   	2.8725803144e+02
0.0957729220994   	2.8723921752e+02
0.095965062004    	2.8722101593e+02
0.0961572019086   	2.8720186007e+02
0.0963493418132   	2.8718349483e+02
0.0965414817177   	2.8716116233e+02
0.0967235089957   	2.8713140007e+02
0.0969055362738   	2.8709961031e+02
0.0970875635518   	2.8706992190e+02
0.0972695908298   	2.8704411310e+02
0.0974516181078   	2.8702216022e+02
0.0976336453858   	2.8700237525e+02
0.0978156726638   	2.8698283299e+02
0.0979976999418   	2.8696162511e+02
0.0981797272199   	2.8693796881e+02
0.0983617544979   	2.8691221335e+02
0.0985437817759   	2.8688609690e+02
0.0987258090539   	2.8686102532e+02
0.0989078363319   	2.8684017988e+02
0.0990898636099   	2.8682447951e+02
0.0992718908879   	2.8680927189e+02
0.099453918166    	2.8679361661e+02
0.099635945444    	2.8677506308e+02
0.099817972722    	2.8675186755e+02
0.1               	2.8672555974e+02
0.100174825175    	2.8669577706e+02
0.100349039073    	2.8666706176e+02
0.100522643831    	2.8664241657e+02
0.10069564158     	2.8662505598e+02
0.100868034442    	2.8660937023e+02
0.101039824531    	2.8659432098e+02
0.101211013956    	2.8657872947e+02
0.101381604816    	2.8656129508e+02
0.101551599205    	2.8654138244e+02
0.101720999208    	2.8651928362e+02
0.101889806903    	2.8649576798e+02
0.102058024361    	2.8647241452e+02
0.102225653647    	2.8645137579e+02
0.102392696816    	2.8643371269e+02
0.102559155918    	2.8641927975e+02
0.102725032995    	2.8640714334e+02
0.102890330082    	2.8639598294e+02
0.103055049208    	2.8638442792e+02
0.103219192392    	2.8637091882e+02
0.10338276165     	2.8635424579e+02
0.103545758987    	2.8633486806e+02
0.103708186403    	2.8631460231e+02
0.103870045891    	2.8629531939e+02
0.104031339437    	2.8627823765e+02
0.104192069019    	2.8626305450e+02
0.10435223661     	2.8624805081e+02
0.10451128805     	2.8623147437e+02
0.104669785305    	2.8621325080e+02
0.104827730304    	2.8619527319e+02
0.104985124971    	2.8617951120e+02
0.105141971226    	2.8616638155e+02
0.10529772827     	2.8615443370e+02
0.105452944492    	2.8614192837e+02
0.105607621768    	2.8612801829e+02
0.10576176197     	2.8611382830e+02
0.105915366963    	2.8610011596e+02
0.106068438605    	2.8608724184e+02
0.106220978749    	2.8607528725e+02
0.10637298924     	2.8606313551e+02
0.106524471916    	2.8605022189e+02
0.106675954592    	2.8603759748e+02
0.106826909454    	2.8602493423e+02
0.106977338341    	2.8601288173e+02
0.107127243086    	2.8600244594e+02
0.107276625514    	2.8599367710e+02
0.107426007942    	2.8598616007e+02
0.107574868054    	2.8597896685e+02
0.107723207676    	2.8597115200e+02
0.107871028629    	2.8596228953e+02
0.108018849581    	2.8595296620e+02
0.108166151863    	2.8594314474e+02
0.108312937295    	2.8593273112e+02
0.10845920769     	2.8592174098e+02
0.108604964856    	2.8590986687e+02
0.108750210594    	2.8589733857e+02
0.108895456331    	2.8588551672e+02
0.10904019064     	2.8587526913e+02
0.109184415321    	2.8586724873e+02
0.109328132168    	2.8586176672e+02
0.10947134297     	2.8585817325e+02
0.109614049509    	2.8585520678e+02
0.10975625356     	2.8585191527e+02
0.109897956893    	2.8584792555e+02
0.110039660225    	2.8584391549e+02
0.110180862839    	2.8583901107e+02
0.110321566504    	2.8583312353e+02
0.110462270169    	2.8582694068e+02
0.110602474885    	2.8582058270e+02
0.110742182421    	2.8581489907e+02
0.11088139454     	2.8580994580e+02
0.111020606659    	2.8580553814e+02
0.111159323361    	2.8580178891e+02
0.11129754641     	2.8579902645e+02
0.111435769458    	2.8579765173e+02
0.111573498853    	2.8579724419e+02
0.111710736357    	2.8579742920e+02
0.111847973861    	2.8579613437e+02
0.111984719475    	2.8579392823e+02
0.11212097496     	2.8578957862e+02
0.112257230446    	2.8578645226e+02
0.112392995804    	2.8578287207e+02
0.112528761162    	2.8577820533e+02
0.112664036393    	2.8577310950e+02
0.112798823265    	2.8576805958e+02
0.112933610137    	2.8576384890e+02
0.113067908651    	2.8576024444e+02
0.113202207165    	2.8575822602e+02
0.113336017321    	2.8575758912e+02
0.113469340894    	2.8575834100e+02
0.113602664468    	2.8575885089e+02
0.113735501459    	2.8575608315e+02
0.11386833845     	2.8575778039e+02
0.114000688858    	2.8575531401e+02
0.114133039267    	2.8575219960e+02
0.114264903093    	2.8574861485e+02
0.114396766919    	2.8574464173e+02
0.114528144163    	2.8574073775e+02
0.114659521407    	2.8573475751e+02
0.114790412069    	2.8572749896e+02
0.11492081795     	2.8571935401e+02
0.115051223831    	2.8571133171e+02
0.115181144932    	2.8570445317e+02
0.115310583055    	2.8569863153e+02
0.115439539995    	2.8569324123e+02
0.115568017542    	2.8568785181e+02
0.115696495088    	2.8568258908e+02
0.115824493241    	2.8567694126e+02
0.115952013788    	2.8567062175e+02
0.116079058513    	2.8566392520e+02
0.11620562919     	2.8565773571e+02
0.116331727589    	2.8565312239e+02
0.116457355471    	2.8564978259e+02
0.116582514592    	2.8564926369e+02
0.116707673714    	2.8565091077e+02
0.116832364074    	2.8565112743e+02
0.11695658743     	2.8564417775e+02
0.117080810785    	2.8563694760e+02
0.117204567136    	2.8563382589e+02
0.117328323486    	2.8563176521e+02
0.117451612832    	2.8563070459e+02
0.117574902177    	2.8562936516e+02
0.117698191522    	2.8562681151e+02
0.117821012087    	2.8562017040e+02
0.117943832651    	2.8560680976e+02
0.118066184435    	2.8559254416e+02
0.118188536219    	2.8557906375e+02
0.118310419222    	2.8556756165e+02
0.118432302225    	2.8555854843e+02
0.118553716447    	2.8555231559e+02
0.118675130669    	2.8554926123e+02
0.118796076111    	2.8552939005e+02
0.118916554581    	2.8550824748e+02
0.119037033052    	2.8548736799e+02
0.119157044552    	2.8546541505e+02
0.119277056052    	2.8544178894e+02
0.119396600581    	2.8541630148e+02
0.11951614511     	2.8538823039e+02
0.119635222668    	2.8535708120e+02
0.119754300226    	2.8532376172e+02
0.119872910813    	2.8528982619e+02
0.119991056261    	2.8525668822e+02
0.120109201709    	2.8522565698e+02
0.120226882017    	2.8519744101e+02
0.120344099017    	2.8517206379e+02
0.120461316017    	2.8514953141e+02
0.120578069709    	2.8512915189e+02
0.120694361923    	2.8510957458e+02
0.120810654138    	2.8509066310e+02
0.120926484875    	2.8507161271e+02
0.121042315613    	2.8505117195e+02
0.12115814635     	2.8502894119e+02
0.121273513765    	2.8500469391e+02
0.12138888118     	2.8497837216e+02
0.121503785271    	2.8494964346e+02
0.121618689363    	2.8491919478e+02
0.121733593455    	2.8488803554e+02
0.121848032347    	2.8485632002e+02
0.12196247124     	2.8482363335e+02
0.122076444934    	2.8479051277e+02
0.122189955321    	2.8475800345e+02
0.122303465707    	2.8472633718e+02
0.122416512786    	2.8469654096e+02
0.122529559865    	2.8466846839e+02
0.122642143636    	2.8464031727e+02
0.122754727407    	2.8461116667e+02
0.12286684787     	2.8458093078e+02
0.122978968334    	2.8455005774e+02
0.123091088797    	2.8451911246e+02
0.12320274403     	2.8448827985e+02
0.123314399263    	2.8445789703e+02
0.123425589266    	2.8442820609e+02
0.12353677927     	2.8439949556e+02
0.123647969273    	2.8437209596e+02
0.123758692091    	2.8434618918e+02
0.123869414909    	2.8432190260e+02
0.123980137727    	2.8429935465e+02
0.124090391381    	2.8427712479e+02
0.124200645035    	2.8425422734e+02
0.124310898688    	2.8423027850e+02
0.124420681173    	2.8420447656e+02
0.124530463657    	2.8417609754e+02
0.124640246141    	2.8414496320e+02
0.124750028625    	2.8411211824e+02
0.124859811109    	2.8407888380e+02
0.124969116279    	2.8404709831e+02
0.125078421448    	2.8401832976e+02
0.125187726617    	2.8399263272e+02
0.125297031786    	2.8396843685e+02
0.125405855434    	2.8394481700e+02
0.125514679083    	2.8391960405e+02
0.125623502731    	2.8389588825e+02
0.125731842719    	2.8387197961e+02
0.125840182707    	2.8384577797e+02
0.125948522695    	2.8381734143e+02
0.126056376853    	2.8378799547e+02
0.126164231012    	2.8375704852e+02
0.12627208517     	2.8372440989e+02
0.1263794513      	2.8369100827e+02
0.126486817431    	2.8365739865e+02
0.126594183561    	2.8362945503e+02
0.126701059435    	2.8360377859e+02
0.12680793531     	2.8358068645e+02
0.126914811184    	2.8355847826e+02
0.127021194542    	2.8353613224e+02
0.127127577901    	2.8351567386e+02
0.127233468744    	2.8349497311e+02
0.127339359587    	2.8347509335e+02
0.127444757915    	2.8345406272e+02
0.127550156242    	2.8343227419e+02
0.127655062054    	2.8340589286e+02
0.127759967866    	2.8337720408e+02
0.127864381162    	2.8334424803e+02
0.127968794459    	2.8331044047e+02
0.128073207755    	2.8327975909e+02
0.128177126202    	2.8324630802e+02
0.128281044648    	2.8321265440e+02
0.128384963095    	2.8318756643e+02
0.128488384324    	2.8316110723e+02
0.128591805554    	2.8314020370e+02
0.128695226783    	2.8312209720e+02
0.128798148392    	2.8309933834e+02
0.128901070002    	2.8307260053e+02
0.129003991612    	2.8304410405e+02
0.129106411165    	2.8301557226e+02
0.129208830718    	2.8298533389e+02
0.129311250271    	2.8295230621e+02
0.129413669824    	2.8291983216e+02
0.12951558235     	2.8288965946e+02
0.129617494876    	2.8286287829e+02
0.129719407401    	2.8284569667e+02
0.129820810364    	2.8283528087e+02
0.129922213327    	2.8282860714e+02
0.13002361629     	2.8283014428e+02
0.130124507117    	2.8283362401e+02
0.130225397944    	2.8283641368e+02
0.130326288771    	2.8283781170e+02
0.130427179598    	2.8283783432e+02
0.130527553036    	2.8283218841e+02
0.130627926473    	2.8282877902e+02
0.130728299911    	2.8282594284e+02
0.13082815328     	2.8282315374e+02
0.130928006648    	2.8282066144e+02
0.131027860016    	2.8281932881e+02
0.131127713385    	2.8281915065e+02
0.131227041209    	2.8281981326e+02
0.131326369033    	2.8282106820e+02
0.131425696858    	2.8282272532e+02
0.131525024682    	2.8282175216e+02
0.131624352506    	2.8282091355e+02
0.13172314631     	2.8282124351e+02
0.131821940114    	2.8282419372e+02
0.131920733917    	2.8282983361e+02
0.132019527721    	2.8283804225e+02
0.132117781668    	2.8284796309e+02
0.132216035615    	2.8285863201e+02
0.132314289562    	2.8287067190e+02
0.132412000669    	2.8288437617e+02
0.132509711777    	2.8289952415e+02
0.132607422884    	2.8291536268e+02
0.132705133991    	2.8293126102e+02
0.13280229616     	2.8294794427e+02
0.132899458329    	2.8296502681e+02
0.132996620497    	2.8298218977e+02
0.133093782666    	2.8299858337e+02
0.133190944834    	2.8301439960e+02
0.133288107003    	2.8303051653e+02
0.13338470754     	2.8304741496e+02
0.133481308078    	2.8306520457e+02
0.133577908616    	2.8308352514e+02
0.133674509153    	2.8310210295e+02
0.133770541452    	2.8312108162e+02
0.133866573751    	2.8314125428e+02
0.13396260605     	2.8316331783e+02
0.134058066729    	2.8318727597e+02
0.134153527407    	2.8321282594e+02
0.134248988085    	2.8323939832e+02
0.134344448763    	2.8326664635e+02
0.134439330892    	2.8329447832e+02
0.134534213021    	2.8332336831e+02
0.13462909515     	2.8335332254e+02
0.134723977278    	2.8338382353e+02
0.134818273715    	2.8341379303e+02
0.134912570151    	2.8344282817e+02
0.135006866588    	2.8347110165e+02
0.135101163025    	2.8349948808e+02
0.135195459461    	2.8352916021e+02
0.135289755898    	2.8356096864e+02
0.135384052334    	2.8359495703e+02
0.135477744306    	2.8363132133e+02
0.135571436279    	2.8367156949e+02
0.135665128251    	2.8371478985e+02
0.135758820223    	2.8375935768e+02
0.135852512195    	2.8380435035e+02
0.135946204167    	2.8384958789e+02
0.13603989614     	2.8389498415e+02
0.136133588112    	2.8394023463e+02
0.136226651279    	2.8398465549e+02
0.136319714446    	2.8402837462e+02
0.136412777613    	2.8405380782e+02
0.13650584078     	2.8403274860e+02
0.136598903947    	2.8401076952e+02
0.136691967114    	2.8398775591e+02
0.136785030281    	2.8396470047e+02
0.136878093448    	2.8394213274e+02
0.136971156615    	2.8392063471e+02
0.13706355976     	2.8390070794e+02
0.137155962904    	2.8388237650e+02
0.137248366049    	2.8386553131e+02
0.137340769194    	2.8384984037e+02
0.137433172338    	2.8383487779e+02
0.137524901007    	2.8382027993e+02
0.137616629676    	2.8380562623e+02
0.137708358345    	2.8379067017e+02
0.137800087014    	2.8377521983e+02
0.137891815683    	2.8375915937e+02
0.137983544352    	2.8374246579e+02
0.138075273022    	2.8372520102e+02
0.138166301472    	2.8370755443e+02
0.138257329922    	2.8368955609e+02
0.138348358372    	2.8367134661e+02
0.138439386822    	2.8365303716e+02
0.138530415273    	2.8363474125e+02
0.138621443723    	2.8361659911e+02
0.138712472173    	2.8359877038e+02
0.138803500623    	2.8358139163e+02
0.138894529074    	2.8356452086e+02
0.138985557524    	2.8354811071e+02
0.139076585974    	2.8353203901e+02
0.139167614424    	2.8351617834e+02
0.139257884304    	2.8350052828e+02
0.139348154184    	2.8348500468e+02
0.139438424064    	2.8346968271e+02
0.139528693943    	2.8345457884e+02
0.139618963823    	2.8343960621e+02
0.139708455514    	2.8342463156e+02
0.139797947206    	2.8340928829e+02
0.139887438897    	2.8339330226e+02
0.139976930588    	2.8337642214e+02
0.140066422279    	2.8335850268e+02
0.14015591397     	2.8333956400e+02
0.140245405661    	2.8331980953e+02
0.140334083792    	2.8329971202e+02
0.140422761922    	2.8327956512e+02
0.140511440052    	2.8325981004e+02
0.140600118183    	2.8324075817e+02
0.140688796313    	2.8322288511e+02
0.140777474444    	2.8320594666e+02
0.140866152574    	2.8318978406e+02
0.14095397803     	2.8317432909e+02
0.141041803486    	2.8315925029e+02
0.141129628942    	2.8314432436e+02
0.141217454398    	2.8312935092e+02
0.141305279854    	2.8311425400e+02
0.14139310531     	2.8309907703e+02
0.141480930766    	2.8308390424e+02
0.141567860044    	2.8306886887e+02
0.141654789322    	2.8305386040e+02
0.1417417186      	2.8303889874e+02
0.141828647878    	2.8302401179e+02
0.141915577155    	2.8300928390e+02
0.142002506433    	2.8299484348e+02
0.142089435711    	2.8298080967e+02
0.142176364989    	2.8296722270e+02
0.142263294267    	2.8295404427e+02
0.142350223545    	2.8294122058e+02
0.142437152823    	2.8292876419e+02
0.142524082101    	2.8291675957e+02
0.142611011379    	2.8290526535e+02
0.142697940657    	2.8289427688e+02
0.142784869934    	2.8288372581e+02
0.142871799212    	2.8287348348e+02
0.14295768115     	2.8286335155e+02
0.143043563087    	2.8285286389e+02
0.143129445024    	2.8284163144e+02
0.143215326961    	2.8282938243e+02
0.143301208898    	2.8281605864e+02
0.143387090836    	2.8280174487e+02
0.143472972773    	2.8278657169e+02
0.14355885471     	2.8277067049e+02
0.143644736647    	2.8275418651e+02
0.143730618584    	2.8273728792e+02
0.143816500522    	2.8272010350e+02
0.143902382459    	2.8270268578e+02
0.143988264396    	2.8268505895e+02
0.144074146333    	2.8266731348e+02
0.144158801386    	2.8264982728e+02
0.144243456438    	2.8263273395e+02
0.14432811149     	2.8261688236e+02
0.144412766543    	2.8260233511e+02
0.144497421595    	2.8258933089e+02
0.144582076647    	2.8257807685e+02