# Probe 0 (3.4 0.005 1.5)
# Probe 1 (4.4 0.005 1.5)
# Probe 2 (5.4 0.005 1.5)
# Probe 3 (5.9 0.005 1.5)
# Probe 4 (6.2 0.005 1.5)
# Probe 5 (6.7 0.005 1.5)
# Probe 6 (8.2 0.005 1.5)
#           Probe                 0                 1                 2                 3                 4                 5                 6
#            Time
    1.1999904e-06     0.09999960001     0.09999960001     0.09999960001     0.09999960001     0.09999960001     0.09999960001     0.09999960001
  2.639965056e-06     0.09999912003     0.09999912003     0.09999912003     0.09999912003     0.09999912003     0.09999912003     0.09999912003
  4.367944597e-06     0.09999854405     0.09999854405     0.09999854405     0.09999854405     0.09999854405     0.09999854405     0.09999854405
  6.441505713e-06      0.0999978529      0.0999978529      0.0999978529      0.0999978529      0.0999978529      0.0999978529      0.0999978529
   8.92973777e-06     0.09999702355     0.09999702355     0.09999702355     0.09999702355     0.09999702355     0.09999702355     0.09999702355
  1.191552707e-05     0.09999602839     0.09999602839     0.09999602839     0.09999602839     0.09999602839     0.09999602839     0.09999602839
  1.549838863e-05     0.09999483426     0.09999483426     0.09999483426     0.09999483426     0.09999483426     0.09999483426     0.09999483426
  1.979776087e-05     0.09999340138     0.09999340138     0.09999340138     0.09999340138     0.09999340138     0.09999340138     0.09999340138
  2.495674128e-05     0.09999168209     0.09999168209     0.09999168209     0.09999168209     0.09999168209     0.09999168209     0.09999168209
  3.114713435e-05     0.09998961917     0.09998961917     0.09998961917     0.09998961917     0.09998961917     0.09998961917     0.09998961917
  3.857523794e-05     0.09998714396     0.09998714396     0.09998714396     0.09998714396     0.09998714396     0.09998714396     0.09998714396
  4.748896225e-05     0.09998417393     0.09998417393     0.09998417393     0.09998417393     0.09998417393     0.09998417393     0.09998417393
  5.818543142e-05     0.09998061023     0.09998061023     0.09998061023     0.09998061023     0.09998061023     0.09998061023     0.09998061023
  7.102064463e-05     0.09997633445     0.09997633445     0.09997633445     0.09997633445     0.09997633445     0.09997633445     0.09997633445
  8.642131685e-05     0.09997120472     0.09997120472     0.09997120472     0.09997120472     0.09997120472     0.09997120472     0.09997120472
  0.0001049009832     0.09996505043     0.09996505041     0.09996505041     0.09996505041     0.09996505041     0.09996505041     0.09996505041
  0.0001270765827      0.0999576667     0.09995766666     0.09995766666     0.09995766666     0.09995766666     0.09995766666     0.09995766666
  0.0001536896689     0.09994880752     0.09994880742     0.09994880742     0.09994880742     0.09994880742     0.09994880742     0.09994880742
  0.0001856219625     0.09993818066     0.09993818041     0.09993818041     0.09993818041     0.09993818041     0.09993818041     0.09993818041
  0.0002239407148     0.09992543287     0.09992543223     0.09992543223     0.09992543223     0.09992543223     0.09992543223     0.09992543223
  0.0002699019884     0.09991014919     0.09991014756     0.09991014757     0.09991014757     0.09991014757     0.09991014757     0.09991014757
  0.0003250351347     0.09989182559      0.0998918215      0.0998918215      0.0998918215      0.0998918215      0.0998918215      0.0998918215
  0.0003911802278     0.09986985791     0.09986984769      0.0998698477      0.0998698477      0.0998698477      0.0998698477      0.0998698477
  0.0004705543394     0.09984352258     0.09984349723     0.09984349724     0.09984349724     0.09984349724     0.09984349724     0.09984349724
  0.0005658032734     0.09981196499     0.09981190272     0.09981190273     0.09981190274     0.09981190274     0.09981190274     0.09981190274
  0.0006799700095     0.09977422116     0.09977407047     0.09977407047     0.09977407049     0.09977407049     0.09977407049     0.09977407049
  0.0008169700928     0.09972908301     0.09972872548     0.09972872544     0.09972872549     0.09972872549     0.09972872549     0.09972872549
  0.0009814618316     0.09967518212     0.09967435841     0.09967435827     0.09967435838     0.09967435838     0.09967435838     0.09967435838
   0.001179117227     0.09961095808     0.09960914153     0.09960914106     0.09960914131     0.09960914132     0.09960914132     0.09960914132
   0.001416111804     0.09953485509     0.09953110454     0.09953110306      0.0995311036     0.09953110362     0.09953110362     0.09953110362
   0.001666544217     0.09945544683     0.09944883298     0.09944882868     0.09944882974     0.09944882978     0.09944882978     0.09944882978
   0.001916976631      0.0993768386     0.09936675756     0.09936674637     0.09936674821     0.09936674829      0.0993667483      0.0993667483
   0.002167409044     0.09929860127     0.09928488254      0.0992848558     0.09928485873      0.0992848589     0.09928485892     0.09928485892
   0.002417841458     0.09922016269     0.09920321517     0.09920315619     0.09920316054     0.09920316087     0.09920316091     0.09920316092
   0.002668273871     0.09914096459     0.09912176713     0.09912164676     0.09912165285     0.09912165344     0.09912165354     0.09912165354
   0.002918706284     0.09906060775     0.09904055517      0.0990403268     0.09904033488     0.09904033587     0.09904033607     0.09904033607
   0.003169138698     0.09897894296     0.09895960179     0.09895919638     0.09895920655     0.09895920812     0.09895920847     0.09895920849
   0.003419571111     0.09889608904     0.09887893145     0.09887825365     0.09887826561     0.09887826799     0.09887826861     0.09887826865
   0.003670003524     0.09881241883     0.09879857211     0.09879749914     0.09879751199     0.09879751541     0.09879751647     0.09879751655
   0.003920435938     0.09872841524     0.09871854812     0.09871693314     0.09871694494     0.09871694962     0.09871695131     0.09871695146
   0.004170868351     0.09864454309     0.09863887582     0.09863655646     0.09863656378     0.09863656982      0.0986365724     0.09863657267
   0.004421300765      0.0985611734     0.09855955745     0.09855637026     0.09855636799     0.09855637525     0.09855637902     0.09855637947
   0.004671733178     0.09847859227      0.0984805761     0.09847637716     0.09847635838     0.09847636633     0.09847637158     0.09847637234
   0.004922165591     0.09839699388     0.09840188531     0.09839657731     0.09839653258     0.09839654008     0.09839654701     0.09839654822
   0.005172598005     0.09831641952     0.09832341178     0.09831697522     0.09831689199     0.09831689713     0.09831690575     0.09831690759
   0.005423030418     0.09823673056     0.09824505239     0.09823757578     0.09823743714     0.09823743713     0.09823744704     0.09823744976
   0.005673462831     0.09815769273     0.09816668493     0.09815838586     0.09815816868     0.09815815993     0.09815817019     0.09815817404
   0.005923895245     0.09807909946      0.0980881856     0.09807941347     0.09807908758     0.09807906566     0.09807907451     0.09807907973
   0.006174327658     0.09800082847     0.09800945294     0.09800066771     0.09800019483     0.09800015472      0.0980001594     0.09800016616
   0.006424760072     0.09792285655     0.09793043248     0.09792215817     0.09792149227     0.09792142756     0.09792142434     0.09792143264
   0.006675192485     0.09784522429     0.09785113467     0.09784389388     0.09784298279     0.09784288449     0.09784286892     0.09784287849
   0.006925624898      0.0977679794     0.09777164091      0.0977658818     0.09776467022     0.09776452621     0.09776449292     0.09776450305
   0.007176057312     0.09769113774     0.09769209699     0.09768812478     0.09768655953     0.09768635388     0.09768629625     0.09768630564
   0.007426489725     0.09761467057     0.09761269659     0.09761062135     0.09760865844      0.0976083713     0.09760828088     0.09760828749
   0.007676922139     0.09753850654     0.09753364227     0.09753335598     0.09753096964     0.09753057766      0.0975304431     0.09753044413
   0.007927354552     0.09746256349     0.09745512703     0.09745630877     0.09745350165     0.09745297868     0.09745278502      0.0974527768
   0.008177786965     0.09738676897     0.09737729649     0.09737944265      0.0973762561     0.09737557452     0.09737530248     0.09737528033
   0.008428219379      0.0973110473      0.0973002481     0.09730272942     0.09729925084     0.09729838398     0.09729800961     0.09729796754
   0.008678651792     0.09723525537     0.09722397902     0.09722610927     0.09722247405      0.0972213995     0.09722089424      0.0972208243
   0.008929084205     0.09715924854     0.09714844015     0.09714954266     0.09714592759     0.09714463143     0.09714396278     0.09714385445
   0.009179516619     0.09708290373     0.09707352473     0.09707299652     0.09706960349     0.09706808492     0.09706721781     0.09706705732
   0.009429949032     0.09700613887     0.09699908288     0.09699645715     0.09699348764     0.09699176339     0.09699066257     0.09699043229
   0.009680381446     0.09692895107     0.09692493074     0.09691993567     0.09691755986     0.09691566759      0.0969143009     0.09691397873
   0.009930813859      0.0968514243     0.09685086045     0.09684346903      0.0968417949     0.09683979448     0.09683813707     0.09683769604
    0.01018124627     0.09677371182     0.09677665452     0.09676711838     0.09676616478     0.09676413642     0.09676217562     0.09676158366
    0.01043167869     0.09669602398      0.0967021085     0.09669096232     0.09669064252     0.09668868057     0.09668642088     0.09668564106
     0.0106821111     0.09661860163     0.09662705796     0.09661508457     0.09661520623     0.09661340882     0.09661087651      0.0966098678
    0.01093254351     0.09654168528     0.09655140531     0.09653955754      0.0965398427     0.09653829866     0.09653554476      0.0965342635
    0.01118297593     0.09646548395     0.09647513917     0.09646442273     0.09646455048     0.09646332503     0.09646042587     0.09645882782
    0.01143340834     0.09639015123     0.09639835509      0.0963896777     0.09638934096      0.0963884632     0.09638551732      0.0963835605
    0.01168384075     0.09631576043     0.09632125235     0.09631526934     0.09631423678     0.09631369207     0.09631081324     0.09630846129
    0.01193427317     0.09624228865     0.09624409911     0.09624109502      0.0962392672      0.0962389972     0.09623630387     0.09623352995
    0.01218470558     0.09616961477      0.0961672122     0.09616701803     0.09616446411     0.09616437582     0.09616197831     0.09615876949
    0.01243513799     0.09609752359     0.09609089787     0.09609287954     0.09608984261     0.09608982477     0.09608781291     0.09608417407
    0.01268557041     0.09602575857     0.09601541986     0.09601854098     0.09601541173     0.09601535714     0.09601379032      0.0960097473
    0.01293600282     0.09595406442     0.09594094626     0.09594390302     0.09594115713     0.09594098723     0.09593988883     0.09593549004
    0.01318643523     0.09588223532     0.09586753166     0.09586893529     0.09586704352     0.09586672974      0.0958660871     0.09586140342
    0.01343686765     0.09581013645     0.09579511638     0.09579369374     0.09579302098     0.09579259512     0.09579236605     0.09578748893
    0.01368730006     0.09573771584      0.0957235523     0.09571832309     0.09571903491     0.09571858594     0.09571871038     0.09571374835
    0.01393773247     0.09566500463     0.09565263999     0.09564304307     0.09564503927     0.09564469574     0.09564510988     0.09564018377
    0.01418816489     0.09559210515     0.09558215698     0.09556812092      0.0955710136     0.09557091161     0.09557155999     0.09556679747
     0.0144385973     0.09551917087      0.0955118819     0.09549382949     0.09549697199     0.09549722028     0.09549806201     0.09549359191
    0.01468902971     0.09544637386     0.09544159655     0.09542039889     0.09542297491     0.09542361398     0.09542462282     0.09542056945
    0.01493946213     0.09537385751     0.09537111119     0.09534796807     0.09534912603     0.09535009549     0.09535125433     0.09534773219
    0.01518989454     0.09530169008     0.09530028472     0.09527655469     0.09527556263     0.09527668973     0.09527797313     0.09527508164
    0.01544032695     0.09522983163     0.09522904335     0.09520603719     0.09520243513     0.09520344626     0.09520480045     0.09520261831
    0.01569075937     0.09515811645     0.09515739593     0.09513617565     0.09512988118     0.09513043736     0.09513176206     0.09513034129
    0.01594119178     0.09508628112     0.09508542181       0.095066658     0.09505800044     0.09505775176     0.09505888737      0.0950582477
    0.01619162419     0.09501403657     0.09501321686     0.09499714848     0.09498682873     0.09498548117     0.09498620781     0.09498633224
    0.01644205661     0.09494115763     0.09494088205      0.0949273428     0.09491632262     0.09491370371     0.09491375932      0.0949145868
    0.01669248902     0.09486755263     0.09486895172     0.09485714022     0.09484636143      0.0948424679     0.09484158025     0.09484300026
    0.01694292143     0.09479329265     0.09479779687     0.09478650398     0.09477676573      0.0947717786     0.09476970798     0.09477155848
    0.01719335385     0.09471860404      0.0947269735     0.09471555416       0.094707314     0.09470158877     0.09469817653     0.09470024476
    0.01744378626     0.09464383425     0.09465600586     0.09464455405     0.09463777956     0.09463180205     0.09462701175     0.09462904063
    0.01769421867     0.09456939506     0.09458477043     0.09457370326     0.09456796815     0.09456227453     0.09455622644     0.09455792731
    0.01794465109     0.09449569299     0.09451294446      0.0945030307     0.09449775958     0.09449283764     0.09448581567     0.09448688741
     0.0181950835     0.09442306083     0.09444027973     0.09443238086     0.09442712892     0.09442331391      0.0944157534     0.09441590697
    0.01844551591     0.09435170886     0.09436678625     0.09436145187      0.0943561536     0.09435354701     0.09434599158     0.09434497744
    0.01869594833     0.09428169953     0.09429274304     0.09428989545     0.09428498974     0.09428343606     0.09427646187     0.09427409741
    0.01894638074     0.09421294384     0.09421860983     0.09421745128     0.09421382221     0.09421295745     0.09420707995     0.09420327378
    0.01919681315     0.09414521966     0.09414491743     0.09414407972     0.09414281003       0.094142177      0.0941377573     0.09413252715
    0.01944724557     0.09407819002     0.09407214547     0.09407001131     0.09407201357      0.0940712195     0.09406839202     0.09406187246
    0.01969767798     0.09401148775     0.09400066728     0.09399572975     0.09400140014     0.09400026484     0.09399891004     0.09399134653
    0.01994811039     0.09394477485     0.09393069988     0.09392183161      0.0939308377     0.09392948345     0.09392925942     0.09392098694
    0.02019854281     0.09387780203     0.09386230776     0.09384893645     0.09386014988     0.09385899617     0.09385942664     0.09385083372
    0.02044897522     0.09381043042     0.09379537565     0.09377759857     0.09378919336     0.09378884146     0.09378944235     0.09378092519
    0.02069940763     0.09374262302     0.09372962774      0.0937081763      0.0937179414      0.0937189652     0.09371937926     0.09371129315
    0.02094984005     0.09367441045     0.09366467121     0.09364071757     0.09364654013     0.09364924404      0.0936493404     0.09364195869
    0.02120027246     0.09360584768     0.09360003795     0.09357492953       0.093575303     0.09357953808     0.09357943989     0.09357292971
    0.02145070487     0.09353698401      0.0935352626     0.09351024849     0.09350464765     0.09350975447     0.09350978031     0.09350420034
    0.02170113729     0.09346784282     0.09346995543     0.09344596557     0.09343499561     0.09343989869      0.0934404314     0.09343575177
     0.0219515697     0.09339843083     0.09340386049     0.09338135511     0.09336664928     0.09337009707     0.09337141578     0.09336755375
    0.02220200211     0.09332875655     0.09333688859     0.09331583071     0.09329968286     0.09330058433     0.09330270631     0.09329956668
    0.02245243453     0.09325884906     0.09326911356     0.09324905427     0.09323389743     0.09323164268     0.09323423892     0.09323174395
    0.02270286694     0.09318877265     0.09320068155     0.09318098399     0.09316887466      0.0931635046     0.09316593591     0.09316403523
    0.02295329935     0.09311863601      0.0931317306      0.0931118445     0.09310405213      0.0930962708     0.09309773348     0.09309639083
    0.02320373177     0.09304859585     0.09306242932     0.09304204747     0.09303883888     0.09302987338     0.09302960392     0.09302876693
    0.02345416418     0.09297885359     0.09299294143     0.09297208157     0.09297275397     0.09296407482     0.09296156695     0.09296113081
    0.02370459659     0.09290964119     0.09292340735     0.09290239509     0.09290553694     0.09289850438     0.09289368369     0.09289346541
    0.02395502901     0.09284119778       0.092853954     0.09283329913     0.09283720153     0.09283274406     0.09282603263     0.09282577205
    0.02420546142     0.09277373606     0.09278472941     0.09276492647     0.09276801464     0.09276643731     0.09275867998     0.09275807107
    0.02445589384     0.09270740654     0.09271593962     0.09269725006     0.09269841337     0.09269937873     0.09269165355     0.09269039996
    0.02470632625     0.09264226276     0.09264781391     0.09263012923      0.0926288952     0.09263156237      0.0926249277     0.09262280944
    0.02495675866      0.0925782327     0.09258053262     0.09256337663     0.09255990251     0.09256317343     0.09255842482     0.09255535768
    0.02520719108      0.0925150995     0.09251420389       0.092496826     0.09249173332      0.0924945334     0.09249203551     0.09248810356
    0.02545762349     0.09245252201     0.09244884822     0.09243037682     0.09242449486     0.09242602178     0.09242565088     0.09242109905
     0.0257080559     0.09239009295     0.09238438691     0.09236400671     0.09235810999     0.09235797963     0.09235919214     0.09235438159
    0.02595848832     0.09232739691     0.09232065114     0.09229775608      0.0922923698     0.09229063704      0.0922926276     0.09228796774
    0.02620892073     0.09226406224     0.09225741487     0.09223169546     0.09222700942     0.09222407076     0.09222597771     0.09222184908
    0.02645935314     0.09219979721      0.0921944314     0.09216588737      0.0921617871      0.0921582068     0.09215930974     0.09215599132
    0.02670978556     0.09213445104     0.09213145066     0.09210035761     0.09209654361     0.09209286304     0.09209271549     0.09209033727
    0.02696021797     0.09206803432     0.09206824725     0.09203508475     0.09203122436     0.09202781384     0.09202629036     0.09202481363
    0.02721065038     0.09200071391     0.09200462285     0.09197000874       0.091965864     0.09196285596     0.09196010989     0.09195934086
     0.0274610828     0.09193277578     0.09194042449     0.09190505582     0.09190054709     0.09189785743     0.09189421754     0.09189384547
    0.02771151521     0.09186456606     0.09187556272     0.09184016487     0.09183536236      0.0918327788     0.09182862391     0.09182827281
    0.02796194762     0.09179642753     0.09181001333     0.09177530061     0.09177036433     0.09176766559     0.09176331416     0.09176259797
    0.02821238004     0.09172864566     0.09174380877     0.09171045203     0.09170555374     0.09170261641     0.09169826041     0.09169683255
    0.02846281245     0.09166141427     0.09167704855     0.09164562041     0.09164088159     0.09163773828      0.0916334351      0.0916310254
    0.02871324486      0.0915948244     0.09160989381     0.09158080117     0.09157627222     0.09157310473     0.09156882001     0.09156525648
    0.02896367728     0.09152887215     0.09154255545     0.09151596755     0.09151165357     0.09150872911      0.0915044075     0.09149962531
    0.02921410969     0.09146347959     0.09147527476     0.09145106673     0.09144698161     0.09144456029     0.09144019455     0.09143423568
     0.0294645421     0.09139852178     0.09140829968      0.0913860314      0.0913822505     0.09138049952     0.09137617354     0.09136917832
    0.02971497452     0.09133385388     0.09134185924     0.09132080271     0.09131748696     0.09131643125     0.09131232349     0.09130451517
    0.02996540693     0.09126933439      0.0912761419      0.0912553558     0.09125273359     0.09125225695     0.09124860501     0.09124026849
    0.03021583934      0.0912048503     0.09121128718     0.09118972658     0.09118803545     0.09118792853     0.09118496807     0.09117642451
    0.03046627176     0.09114030951     0.09114733733     0.09112398807     0.09112339531     0.09112343048     0.09112132983     0.09111290942
    0.03071670417     0.09107568649     0.09108428686     0.09105828521     0.09105881408     0.09105881805      0.0910576301       0.091049643
    0.03096713658     0.09101100444     0.09102209501     0.09099278223     0.09099427052     0.09099416841      0.0909938157     0.09098652387
      0.031217569     0.09094633659     0.09096066571     0.09092764208      0.0909297466     0.09092956359     0.09092985887     0.09092345274
    0.03146800141     0.09088179146     0.09089984712     0.09086300189     0.09086524572      0.0908650706     0.09086576389      0.0908603477
    0.03171843382     0.09081748922     0.09083945329     0.09079895785     0.09080080428     0.09080073136     0.09080156796     0.09079715638
    0.03196886624     0.09075353552     0.09077928749     0.09073556115     0.09073649167     0.09073656432     0.09073733584     0.09073386314
    0.03221929865     0.09069000047     0.09071916376     0.09067282372      0.0906723996     0.09067257471     0.09067314946     0.09067048993
    0.03246973106     0.09062690834     0.09065892406     0.09061072967     0.09060862554     0.09060876932     0.09060909497      0.0906070909
    0.03272016348      0.0905642391      0.0905984511     0.09054924446     0.09054525647     0.09054516872     0.09054524992     0.09054374207
    0.03297059589      0.0905019391     0.09053767522     0.09048831527      0.0904823568     0.09048181241     0.09048167303     0.09048052764
     0.0332210283     0.09043993583     0.09047657247     0.09042786332     0.09041996256      0.0904187554     0.09041839825     0.09041752454
    0.03347146072     0.09037815318     0.09041515307     0.09036777359     0.09035808115      0.0903560576      0.0903554338     0.09035478822
    0.03372189313      0.0903165257     0.09035344414     0.09030788768     0.09029669373      0.0902937702     0.09029276635     0.09029234259
    0.03397232554     0.09025500838     0.09029147866     0.09024800518     0.09023575683      0.0902319233     0.09023036927     0.09023017623
    0.03422275796     0.09019358047     0.09022928808     0.09018789735     0.09017520142     0.09017051767     0.09016821282     0.09016824559
    0.03447319037     0.09013223859     0.09016690268     0.09012733454     0.09011493038     0.09010952173     0.09010627366     0.09010648396
    0.03472362278     0.09007097953     0.09010437272     0.09006612465     0.09005481709     0.09004887308      0.0900445413     0.09004481425
     0.0349740552     0.09000978238     0.09004176968     0.09000415531     0.08999470897     0.08998848362     0.08998301978     0.08998316382
    0.03522448761     0.08994859623     0.08997918705      0.0899414287     0.08993443871     0.08992824677       0.089921724     0.08992147807
    0.03547492002     0.08988734243     0.08991672617     0.08987807611     0.08987384452     0.08986804514     0.08986067162     0.08985972982
    0.03572535244      0.0898259293     0.08985447684     0.08981434333     0.08981279676     0.08980775942     0.08979987218     0.08979792275
    0.03597578485     0.08976427786      0.0897925066     0.08975054597     0.08975122602     0.08974727882     0.08973931651     0.08973608858
    0.03622621726     0.08970235627     0.08973085136     0.08968700491     0.08968914456      0.0896865144     0.08967896935     0.08967427941
    0.03647664968      0.0896402058     0.08966951011     0.08962398036     0.08962665424     0.08962541315     0.08961876779     0.08961255743
    0.03672708209     0.08957795336     0.08960846163      0.0895616236     0.08956393587     0.08956397001      0.0895586267     0.08955098395
     0.0369775145     0.08951581821     0.08954768748     0.08949995955     0.08950122102     0.08950223485     0.08949845058     0.08948961001
    0.03722794692     0.08945408063     0.08948719258     0.08943890455     0.08943875083      0.0894403111     0.08943814985     0.08942847036
    0.03747837933     0.08939295602     0.08942701475     0.08937831203     0.08937673154       0.089378344     0.08937765821     0.08936758159
    0.03772881174     0.08933258916     0.08936722108     0.08931802624     0.08931529739     0.08931649959     0.08931694773     0.08930694364
    0.03797924416     0.08927302153     0.08930788881     0.08925792345     0.08925449024     0.08925493766     0.08925603763     0.08924654345
    0.03822967657     0.08921409955     0.08924907559     0.08919793068     0.08919426085     0.08919378385     0.08919499406     0.08918635953
    0.03848010898     0.08915549834     0.08919079325     0.08913802242     0.08913449007     0.08913310783     0.08913392068     0.08912636632
     0.0387305414     0.08909685647     0.08913299638     0.08907820329     0.08907502168     0.08907291252      0.0890729416     0.08906653805
    0.03898097381     0.08903778328     0.08907558634     0.08901848716      0.0890156975     0.08901313797     0.08901217979     0.08900685109
    0.03923140622     0.08897807846     0.08901842717     0.08895888306     0.08895638577     0.08895367771     0.08895173563     0.08894728495
    0.03948183864     0.08891776602     0.08896136636     0.08889939171     0.08889699801     0.08889440371     0.08889166983     0.08888782254
    0.03973227105     0.08885702457     0.08890425236     0.08884000967      0.0888374935     0.08883519324     0.08883199405     0.08882845038
    0.03998270346     0.08879609455     0.08884694485     0.08878073491     0.08877787496     0.08877595145     0.08877267099      0.0887691588
    0.04023313588     0.08873516779     0.08878932095     0.08872156904     0.08871817947     0.08871662546     0.08871362355       0.088709942
    0.04048356829      0.0886743495     0.08873128436     0.08866251531     0.08865846812     0.08865720822     0.08865475092     0.08865079784
     0.0407340007     0.08861366015     0.08867278187      0.0886035748     0.08859881582       0.088597733     0.08859594792     0.08859172757
    0.04098443312     0.08855315608     0.08861381851     0.08854474448     0.08853930124      0.0885382609     0.08853712394     0.08853273531
    0.04123486553     0.08849281159     0.08855445605     0.08848601905     0.08847999606     0.08847886535     0.08847821776     0.08847382723
    0.04148529795      0.0884326719     0.08849481117     0.08842739498     0.08842095469     0.08841961677       0.088419206     0.08841501031
    0.04173573036     0.08837291878     0.08843504856     0.08836887333     0.08836220626     0.08836057018     0.08836010429     0.08835629115
    0.04198616277      0.0883135777     0.08837535691     0.08831045756     0.08830375152     0.08830175737     0.08830096155     0.08829767494
    0.04223659519     0.08825448326     0.08831591735     0.08825214627     0.08824556585     0.08824318455      0.0882418487     0.08823916509
     0.0424870276     0.08819553911     0.08825687149     0.08819392467     0.08818760744     0.08818483585      0.0881828445      0.0881807634
    0.04273746001     0.08813665033     0.08819833075      0.0881357611     0.08812982731     0.08812668148     0.08812402088     0.08812247063
    0.04298789243     0.08807773105     0.08814041506     0.08807761284     0.08807217749     0.08806868853     0.08806543099     0.08806428707
    0.04323832484     0.08801865348      0.0880832122     0.08801944101     0.08801461499     0.08801083125     0.08800710195     0.08800621261
    0.04348875725     0.08795929337     0.08802674279     0.08796122955     0.08795710174     0.08795309758     0.08794903378     0.08794824615
    0.04373918967     0.08789951223     0.08797095307     0.08790300161     0.08789960281     0.08789548967     0.08789120478     0.08789038445
    0.04398962208     0.08783926882     0.08791571284     0.08784482582     0.08784208675      0.0878380178     0.08783358123     0.08783262083
    0.04424005449     0.08777866376     0.08786083104     0.08778680993     0.08778453037     0.08778069002     0.08777612914     0.08777494435
    0.04449048691     0.08771796205     0.08780608431       0.087729088     0.08772692807     0.08772350193      0.0877188241     0.08771734005
    0.04474091932     0.08765745047     0.08775125236     0.08767180041     0.08766930232      0.0876664318     0.08766165671     0.08765979072
    0.04499135173     0.08759745684     0.08769615895     0.08761507337     0.08761171057     0.08760944401     0.08760463157     0.08760228008
    0.04524178415     0.08753812618     0.08764070467     0.08755900792      0.0875542443     0.08755250095     0.08754776086     0.08754479676