# Probe 0 (0.4 0.005 1.4)
# Probe 1 (0.9 0.005 1.4)
# Probe 2 (1.4 0.005 1.4)
# Probe 3 (1.9 0.005 1.4)
# Probe 4 (2.4 0.005 1.4)
# Probe 5 (2.9 0.005 1.4)
# Probe 6 (3.4 0.005 1.4)
# Probe 7 (3.9 0.005 1.4)
# Probe 8 (4.4 0.005 1.4)
# Probe 9 (4.9 0.005 1.4)
# Probe 10 (5.4 0.005 1.4)
# Probe 11 (5.9 0.005 1.4)
# Probe 12 (6.4 0.005 1.4)
# Probe 13 (6.9 0.005 1.4)
# Probe 14 (7.4 0.005 1.4)
# Probe 15 (7.9 0.005 1.4)
# Probe 16 (8.4 0.005 1.4)
#           Probe                 0                 1                 2                 3                 4                 5                 6                 7                 8                 9                10                11                12                13                14                15                16
#            Time
    1.1999904e-06                 1                 1                 1                 1      0.9999923816                 1                 1                 1                 1                 1                 1                 1                 1                 1                 1                 1                 1
  2.639965056e-06                 1                 1                 1      0.9999999999      0.9999832383                 1                 1                 1                 1                 1                 1                 1                 1                 1                 1                 1                 1
  4.367944597e-06                 1                 1                 1      0.9999999997      0.9999722641                 1                 1                 1                 1                 1                 1                 1                 1                 1                 1                 1                 1
  6.441505713e-06                 1                 1                 1      0.9999999995      0.9999590916                 1                 1                 1                 1                 1                 1                 1                 1                 1                 1                 1                 1
   8.92973777e-06                 1                 1                 1       0.999999999      0.9999432799                 1                 1                 1                 1                 1                 1                 1                 1                 1                 1                 1                 1
  1.191552707e-05                 1                 1                 1      0.9999999983      0.9999242989                 1                 1                 1                 1                 1                 1                 1                 1                 1                 1                 1                 1
  1.549838863e-05                 1                 1                 1      0.9999999971      0.9999015117                 1                 1                 1                 1                 1                 1                 1                 1                 1                 1                 1                 1
  1.979776087e-05                 1                 1                 1      0.9999999953      0.9998741521                 1                 1                 1                 1                 1                 1                 1                 1                 1                 1                 1                 1
  2.495674128e-05                 1                 1                 1      0.9999999926      0.9998413001                 1                 1                 1                 1                 1                 1                 1                 1                 1                 1                 1                 1
  3.114713435e-05                 1                 1                 1      0.9999999884      0.9998018483                 1                 1                 1                 1                 1                 1                 1                 1                 1                 1                 1                 1
  3.857523794e-05                 1                 1                 1      0.9999999822      0.9997544626                 1                 1                 1                 1                 1                 1                 1                 1                 1                 1                 1                 1
  4.748896225e-05                 1                 1                 1       0.999999973      0.9996975333                 1                 1                 1                 1                 1                 1                 1                 1                 1                 1                 1                 1
  5.818543142e-05                 1                 1                 1      0.9999999592      0.9996291222                 1                 1                 1                 1                 1                 1                 1                 1                 1                 1                 1                 1
  7.102064463e-05                 1                 1                 1      0.9999999388      0.9995468937                 1                 1                 1                 1                 1                 1                 1                 1                 1                 1                 1                 1
  8.642131685e-05                 1                 1                 1      0.9999999084      0.9994480284                 1                 1                 1                 1                 1                 1                 1                 1                 1                 1                 1                 1
  0.0001049009832                 1                 1                 1      0.9999998631      0.9993291052                 1                 1                 1                 1                 1                 1                 1                 1                 1                 1                 1                 1
  0.0001270765827                 1                 1                 1      0.9999997948      0.9991859708                 1                 1                 1                 1                 1                 1                 1                 1                 1                 1                 1                 1
  0.0001536896689                 1                 1                 1      0.9999996909      0.9990135687                 1                 1                 1                 1                 1                 1                 1                 1                 1                 1                 1                 1
  0.0001856219625                 1                 1                 1      0.9999995307       0.998805785      0.9999999999                 1                 1                 1                 1                 1                 1                 1                 1                 1                 1                 1
  0.0002239407148                 1                 1                 1       0.999999279      0.9985550693      0.9999999999                 1                 1                 1                 1                 1                 1                 1                 1                 1                 1                 1
  0.0002699019884                 1                 1                 1      0.9999988753      0.9982522804      0.9999999996                 1                 1                 1                 1                 1                 1                 1                 1                 1                 1                 1
  0.0003250351347                 1                 1                 1      0.9999982136      0.9978859173       0.999999999                 1                 1                 1                 1                 1                 1                 1                 1                 1                 1                 1
  0.0003911802278                 1                 1                 1      0.9999971056      0.9974415192      0.9999999973                 1                 1                 1                 1                 1                 1                 1                 1                 1                 1                 1
  0.0004705543394                 1                 1                 1      0.9999952216      0.9969006677      0.9999999925                 1                 1                 1                 1                 1                 1                 1                 1                 1                 1                 1
  0.0005658032734                 1                 1                 1      0.9999919992      0.9962398033      0.9999999796                 1                 1                 1                 1                 1                 1                 1                 1                 1                 1                 1
  0.0006799700095                 1                 1                 1      0.9999865412      0.9954293646      0.9999999453                 1                 1                 1                 1                 1                 1                 1                 1                 1                 1                 1
  0.0008169700928                 1                 1                 1      0.9999775293      0.9944292296      0.9999998579                 1                 1                 1                 1                 1                 1                 1                 1                 1                 1                 1
  0.0009814618316                 1                 1                 1      0.9999633335      0.9931887309      0.9999996519                 1                 1                 1                 1                 1                 1                 1                 1                 1                 1                 1
   0.001179117227                 1                 1                 1      0.9999424573      0.9916449125      0.9999992162                 1                 1                 1                 1                 1                 1                 1                 1                 1                 1                 1
   0.001416111804                 1                 1                 1      0.9999143098      0.9897277197       0.999998414                 1                 1                 1                 1                 1                 1                 1                 1                 1                 1                 1
   0.001666544217                 1                 1                 1      0.9998831833      0.9876372129       0.999997298                 1                 1                 1                 1                 1                 1                 1                 1                 1                 1                 1
   0.001916976631                 1                 1      0.9999999999      0.9998498087      0.9854820859       0.999995979                 1                 1                 1                 1                 1                 1                 1                 1                 1                 1                 1
   0.002167409044                 1                 1      0.9999999999       0.999812124      0.9832518988      0.9999944807                 1                 1                 1                 1                 1                 1                 1                 1                 1                 1                 1
   0.002417841458                 1                 1      0.9999999998      0.9997692432      0.9809366132      0.9999927717                 1                 1                 1                 1                 1                 1                 1                 1                 1                 1                 1
   0.002668273871                 1                 1      0.9999999997       0.999721075       0.978530961      0.9999907867      0.9999999999                 1                 1                 1                 1                 1                 1                 1                 1                 1                 1
   0.002918706284                 1                 1      0.9999999995      0.9996680095      0.9760340978      0.9999884516      0.9999999999                 1                 1                 1                 1                 1                 1                 1                 1                 1                 1
   0.003169138698                 1                 1      0.9999999994      0.9996102944      0.9734463379      0.9999856976      0.9999999999                 1                 1                 1                 1                 1                 1                 1                 1                 1                 1
   0.003419571111                 1                 1      0.9999999992      0.9995475139      0.9707655612      0.9999824563      0.9999999998                 1                 1                 1                 1                 1                 1                 1                 1                 1                 1
   0.003670003524                 1                 1       0.999999999      0.9994788095      0.9679869008      0.9999786534      0.9999999998                 1                 1                 1                 1                 1                 1                 1                 1                 1                 1
   0.003920435938                 1                 1      0.9999999987       0.999403589      0.9651056167      0.9999742156      0.9999999997                 1                 1                 1                 1                 1                 1                 1                 1                 1                 1
   0.004170868351                 1                 1      0.9999999984      0.9993218725      0.9621193813      0.9999690888      0.9999999996                 1                 1                 1                 1                 1                 1                 1                 1                 1                 1
   0.004421300765                 1                 1       0.999999998      0.9992340433      0.9590278164      0.9999632495      0.9999999995                 1                 1                 1                 1                 1                 1                 1                 1                 1                 1
   0.004671733178                 1                 1      0.9999999975      0.9991403765      0.9558303876      0.9999566993      0.9999999994                 1                 1                 1                 1                 1                 1                 1                 1                 1                 1
   0.004922165591                 1                 1      0.9999999968      0.9990408214      0.9525250452      0.9999494433      0.9999999992                 1                 1                 1                 1                 1                 1                 1                 1                 1                 1
   0.005172598005                 1                 1       0.999999996      0.9989351465      0.9491067803      0.9999414689       0.999999999                 1                 1                 1                 1                 1                 1                 1                 1                 1                 1
   0.005423030418                 1                 1      0.9999999949      0.9988231131      0.9455709373      0.9999327371      0.9999999987                 1                 1                 1                 1                 1                 1                 1                 1                 1                 1
   0.005673462831                 1                 1      0.9999999937      0.9987044933      0.9419162503      0.9999231885      0.9999999984                 1                 1                 1                 1                 1                 1                 1                 1                 1                 1
   0.005923895245                 1                 1      0.9999999922      0.9985790448      0.9381401884      0.9999127591       0.999999998                 1                 1                 1                 1                 1                 1                 1                 1                 1                 1
   0.006174327658                 1                 1      0.9999999904       0.998446519      0.9342396332      0.9999013934      0.9999999975                 1                 1                 1                 1                 1                 1                 1                 1                 1                 1
   0.006424760072                 1                 1      0.9999999883      0.9983066985       0.930211489      0.9998890499      0.9999999969                 1                 1                 1                 1                 1                 1                 1                 1                 1                 1
   0.006675192485                 1                 1      0.9999999858      0.9981594002      0.9260527226       0.999875696      0.9999999962                 1                 1                 1                 1                 1                 1                 1                 1                 1                 1
   0.006925624898                 1                 1      0.9999999828      0.9980044417      0.9217603035      0.9998612996      0.9999999954                 1                 1                 1                 1                 1                 1                 1                 1                 1                 1
   0.007176057312                 1                 1      0.9999999793      0.9978416088      0.9173310117      0.9998458214      0.9999999944                 1                 1                 1                 1                 1                 1                 1                 1                 1                 1
   0.007426489725                 1                 1      0.9999999752      0.9976706592      0.9127704026      0.9998292081      0.9999999932                 1                 1                 1                 1                 1                 1                 1                 1                 1                 1
   0.007676922139                 1                 1      0.9999999705      0.9974913688      0.9080692049      0.9998114181      0.9999999918                 1                 1                 1                 1                 1                 1                 1                 1                 1                 1
   0.007927354552                 1                 1      0.9999999649       0.997303457      0.9032221994      0.9997923991      0.9999999902                 1                 1                 1                 1                 1                 1                 1                 1                 1                 1
   0.008177786965                 1                 1      0.9999999586      0.9971065893      0.8982252788      0.9997721243      0.9999999884                 1                 1                 1                 1                 1                 1                 1                 1                 1                 1
   0.008428219379                 1                 1      0.9999999513      0.9969004628      0.8930746735      0.9997505225      0.9999999863                 1                 1                 1                 1                 1                 1                 1                 1                 1                 1
   0.008678651792                 1                 1       0.999999943      0.9966847558      0.8877662785      0.9997275135      0.9999999839                 1                 1                 1                 1                 1                 1                 1                 1                 1                 1
   0.008929084205                 1                 1      0.9999999335      0.9964591727      0.8822959823      0.9997031016      0.9999999813                 1                 1                 1                 1                 1                 1                 1                 1                 1                 1
   0.009179516619                 1                 1      0.9999999228      0.9962234139      0.8766597819      0.9996771528      0.9999999783                 1                 1                 1                 1                 1                 1                 1                 1                 1                 1
   0.009429949032                 1                 1      0.9999999108       0.995977151      0.8708537382      0.9996496327      0.9999999749                 1                 1                 1                 1                 1                 1                 1                 1                 1                 1
   0.009680381446                 1                 1      0.9999998973      0.9957200222      0.8648738667       0.999620487       0.999999971                 1                 1                 1                 1                 1                 1                 1                 1                 1                 1
   0.009930813859                 1                 1      0.9999998822      0.9954516346      0.8587160317      0.9995896496      0.9999999665                 1                 1                 1                 1                 1                 1                 1                 1                 1                 1
    0.01018124627                 1                 1      0.9999998653      0.9951715671      0.8523759231       0.999557041      0.9999999614                 1                 1                 1                 1                 1                 1                 1                 1                 1                 1
    0.01043167869                 1                 1       0.999999848      0.9948796253      0.8458490752      0.9995225676      0.9999999557                 1                 1                 1                 1                 1                 1                 1                 1                 1                 1
     0.0106821111                 1                 1      0.9999998281      0.9945748802      0.8391309611      0.9994861217      0.9999999491                 1                 1                 1                 1                 1                 1                 1                 1                 1                 1
    0.01093254351                 1                 1      0.9999998058      0.9942569339      0.8322170597      0.9994475836      0.9999999418                 1                 1                 1                 1                 1                 1                 1                 1                 1                 1
    0.01118297593                 1                 1      0.9999997809      0.9939252937      0.8251028611      0.9994068279      0.9999999335                 1                 1                 1                 1                 1                 1                 1                 1                 1                 1
    0.01143340834                 1                 1      0.9999997531      0.9935794272      0.8177838326      0.9993637257      0.9999999241                 1                 1                 1                 1                 1                 1                 1                 1                 1                 1
    0.01168384075                 1                 1      0.9999997221      0.9932187692      0.8102553681      0.9993181461      0.9999999136                 1                 1                 1                 1                 1                 1                 1                 1                 1                 1
    0.01193427317                 1                 1      0.9999996974      0.9928427145      0.8025127915      0.9992699575      0.9999999017                 1                 1                 1                 1                 1                 1                 1                 1                 1                 1
    0.01218470558                 1                 1      0.9999996619      0.9924506529      0.7945514698      0.9992190329      0.9999998884                 1                 1                 1                 1                 1                 1                 1                 1                 1                 1
    0.01243513799                 1                 1      0.9999996197      0.9920418846      0.7863666101      0.9991652369      0.9999998734                 1                 1                 1                 1                 1                 1                 1                 1                 1                 1
    0.01268557041                 1                 1      0.9999995717      0.9916156755      0.7779535424      0.9991084381      0.9999998566                 1                 1                 1                 1                 1                 1                 1                 1                 1                 1
    0.01293600282                 1                 1      0.9999995338      0.9911712457      0.7693078269      0.9990485074      0.9999998378                 1                 1                 1                 1                 1                 1                 1                 1                 1                 1
    0.01318643523                 1                 1       0.999999497      0.9907077925       0.760425449      0.9989853132      0.9999998167                 1                 1                 1                 1                 1                 1                 1                 1                 1                 1
    0.01343686765                 1                 1      0.9999994579      0.9902244791      0.7513032296      0.9989187257      0.9999997931                 1                 1                 1                 1                 1                 1                 1                 1                 1                 1
    0.01368730006                 1                 1      0.9999993937      0.9897204636      0.7419397247      0.9988486032      0.9999997668                 1                 1                 1                 1                 1                 1                 1                 1                 1                 1
    0.01393773247                 1                 1      0.9999993157      0.9891949018      0.7323376633      0.9987748071      0.9999997374                 1                 1                 1                 1                 1                 1                 1                 1                 1                 1
    0.01418816489                 1                 1      0.9999992536      0.9886470771      0.7225129183      0.9986972115      0.9999997045                 1                 1                 1                 1                 1                 1                 1                 1                 1                 1
     0.0144385973                 1                 1      0.9999991636      0.9880771856       0.712555698      0.9986157335      0.9999996678                 1                 1                 1                 1                 1                 1                 1                 1                 1                 1
    0.01468902971                 1                 1      0.9999990571       0.987499512       0.704111551      0.9985312061      0.9999996269                 1                 1                 1                 1                 1                 1                 1                 1                 1                 1
    0.01493946213                 1                 1      0.9999989377      0.9869603309      0.7013181577       0.998447529      0.9999995814                 1                 1                 1                 1                 1                 1                 1                 1                 1                 1
    0.01518989454                 1                 1      0.9999988075      0.9864544251      0.6993028762      0.9983685293      0.9999995317                 1                 1                 1                 1                 1                 1                 1                 1                 1                 1
    0.01544032695                 1                 1      0.9999986691      0.9859705786      0.6973284728      0.9982955245      0.9999994782                 1                 1                 1                 1                 1                 1                 1                 1                 1                 1
    0.01569075937                 1                 1      0.9999985263      0.9854918797      0.6953286879      0.9982266612      0.9999994224                 1                 1                 1                 1                 1                 1                 1                 1                 1                 1
    0.01594119178                 1                 1      0.9999983833        0.98500609       0.693279591      0.9981585794      0.9999993657                 1                 1                 1                 1                 1                 1                 1                 1                 1                 1
    0.01619162419                 1                 1      0.9999982434      0.9845078983      0.6911835506      0.9980884183      0.9999993095                 1                 1                 1                 1                 1                 1                 1                 1                 1                 1
    0.01644205661                 1                 1      0.9999981079      0.9839980941      0.6890576043      0.9980148068      0.9999992543                 1                 1                 1                 1                 1                 1                 1                 1                 1                 1