# Probe 0 (0.4 0.005 1.4)
# Probe 1 (0.9 0.005 1.4)
# Probe 2 (1.4 0.005 1.4)
# Probe 3 (1.9 0.005 1.4)
# Probe 4 (2.4 0.005 1.4)
# Probe 5 (2.9 0.005 1.4)
# Probe 6 (3.4 0.005 1.4)
# Probe 7 (3.9 0.005 1.4)
# Probe 8 (4.4 0.005 1.4)
# Probe 9 (4.9 0.005 1.4)
# Probe 10 (5.4 0.005 1.4)
# Probe 11 (5.9 0.005 1.4)
# Probe 12 (6.4 0.005 1.4)
# Probe 13 (6.9 0.005 1.4)
# Probe 14 (7.4 0.005 1.4)
# Probe 15 (7.9 0.005 1.4)
# Probe 16 (8.4 0.005 1.4)
#           Probe                 0                 1                 2                 3                 4                 5                 6                 7                 8                 9                10                11                12                13                14                15                16
#            Time
    1.1999904e-06            293.15            293.15            293.15       293.1500001       293.1647296            293.15            293.15            293.15            293.15            293.15            293.15            293.15            293.15            293.15            293.15            293.15            293.15
  2.639965056e-06            293.15            293.15            293.15       293.1500002       293.1824068            293.15            293.15            293.15       293.1499999            293.15            293.15            293.15            293.15            293.15            293.15            293.15            293.15
  4.367944597e-06            293.15            293.15            293.15       293.1500006       293.2036231            293.15            293.15            293.15       293.1499999            293.15            293.15            293.15            293.15            293.15            293.15            293.15            293.15
  6.441505713e-06            293.15            293.15            293.15       293.1500012       293.2290878       293.1500001            293.15            293.15       293.1499998       293.1499999            293.15            293.15            293.15            293.15            293.15            293.15            293.15
   8.92973777e-06            293.15            293.15            293.15       293.1500024       293.2596533       293.1500003            293.15            293.15       293.1499998       293.1499999            293.15            293.15            293.15            293.15            293.15            293.15            293.15
  1.191552707e-05            293.15            293.15            293.15       293.1500045       293.2963419       293.1500006            293.15            293.15       293.1499997       293.1499999            293.15            293.15            293.15            293.15            293.15            293.15            293.15
  1.549838863e-05            293.15            293.15            293.15       293.1500079       293.3403834       293.1500013            293.15            293.15       293.1499996       293.1499998            293.15            293.15            293.15            293.15            293.15            293.15            293.15
  1.979776087e-05            293.15            293.15            293.15       293.1500138       293.3932534       293.1500026            293.15            293.15       293.1499995       293.1499998            293.15            293.15            293.15            293.15            293.15            293.15            293.15
  2.495674128e-05            293.15            293.15            293.15       293.1500235       293.4567237       293.1500052            293.15            293.15       293.1499994       293.1499997            293.15            293.15            293.15            293.15            293.15            293.15            293.15
  3.114713435e-05            293.15            293.15            293.15       293.1500398        293.532923       293.1500101            293.15            293.15       293.1499992       293.1499997            293.15            293.15            293.15            293.15            293.15            293.15            293.15
  3.857523794e-05            293.15            293.15            293.15       293.1500668       293.6244086       293.1500191            293.15            293.15        293.149999       293.1499996            293.15            293.15            293.15            293.15            293.15            293.15            293.15
  4.748896225e-05            293.15            293.15            293.15       293.1501118       293.7342535       293.1500356            293.15            293.15       293.1499988       293.1499995            293.15            293.15            293.15            293.15            293.15            293.15            293.15
  5.818543142e-05            293.15            293.15            293.15        293.150187       293.8661374       293.1500654            293.15            293.15       293.1499986       293.1499994            293.15            293.15            293.15            293.15            293.15            293.15            293.15
  7.102064463e-05            293.15            293.15            293.15       293.1503129       294.0244589       293.1501188            293.15            293.15       293.1499982       293.1499992            293.15            293.15            293.15            293.15            293.15            293.15            293.15
  8.642131685e-05            293.15            293.15       293.1500001       293.1505245       294.2144649       293.1502139            293.15            293.15       293.1499979        293.149999            293.15            293.15            293.15            293.15            293.15            293.15            293.15
  0.0001049009832            293.15            293.15       293.1500002       293.1508811       294.4424166        293.150382       293.1500001            293.15       293.1499974       293.1499988            293.15            293.15            293.15            293.15            293.15            293.15            293.15
  0.0001270765827            293.15            293.15       293.1500004       293.1514834       294.7157307       293.1506775       293.1500002            293.15       293.1499969       293.1499986            293.15            293.15            293.15            293.15            293.15            293.15            293.15
  0.0001536896689            293.15            293.15       293.1500011       293.1525028       295.0431231       293.1511944       293.1500004            293.15       293.1499962       293.1499983            293.15            293.15            293.15            293.15            293.15            293.15            293.15
  0.0001856219625            293.15            293.15       293.1500029       293.1542286       295.4345894        293.152093       293.1500011            293.15       293.1499954       293.1499979            293.15            293.15            293.15            293.15            293.15            293.15            293.15
  0.0002239407148            293.15            293.15       293.1500074       293.1571469       295.9015941       293.1536457       293.1500028            293.15       293.1499945       293.1499974            293.15            293.15            293.15            293.15            293.15            293.15            293.15
  0.0002699019884            293.15            293.15       293.1500187        293.162062       296.4564943       293.1563058        293.150007            293.15       293.1499934       293.1499969            293.15            293.15            293.15            293.15            293.15            293.15            293.15
  0.0003250351347            293.15       293.1500001       293.1500466       293.1702821       297.1125764       293.1608174       293.1500176            293.15        293.149992       293.1499962            293.15            293.15            293.15            293.15            293.15            293.15            293.15
  0.0003911802278            293.15       293.1500002       293.1501153       293.1838653       297.8830014       293.1683641        293.150044            293.15       293.1499904       293.1499953            293.15            293.15            293.15            293.15            293.15            293.15            293.15
  0.0004705543394            293.15       293.1500007       293.1502817       293.2058816       298.7795535       293.1807475       293.1501086            293.15       293.1499885       293.1499943            293.15            293.15            293.15            293.15            293.15            293.15            293.15
  0.0005658032734            293.15       293.1500023       293.1506775       293.2404949        299.811061       293.2005082       293.1502654            293.15       293.1499862       293.1499928            293.15            293.15            293.15            293.15            293.15            293.15            293.15
  0.0006799700095            293.15       293.1500081       293.1515944       293.2923567       300.9823239       293.2307448       293.1506381       293.1500004       293.1499835        293.149991       293.1499999            293.15            293.15            293.15            293.15            293.15            293.15
  0.0008169700928            293.15       293.1500274       293.1536446       293.3647766       302.3029664       293.2743381       293.1515019       293.1500021       293.1499804       293.1499885       293.1499998            293.15            293.15            293.15            293.15            293.15            293.15
  0.0009814618316       293.1500003       293.1500902       293.1580088       293.4553236       303.8008028       293.3316503       293.1534297       293.1500101       293.1499768       293.1499852       293.1499996            293.15            293.15            293.15            293.15            293.15            293.15
   0.001179117227       293.1500013       293.1502853       293.1666656       293.5497516       305.5576888       293.3964739       293.1575009       293.1500441        293.149973       293.1499808       293.1499991            293.15            293.15            293.15            293.15            293.15            293.15
   0.001416111804       293.1500067       293.1508515       293.1821321       293.6190469       307.7506535       293.4514679       293.1653934        293.150175       293.1499703       293.1499749       293.1499981       293.1499999            293.15            293.15            293.15            293.15            293.15
   0.001666544217       293.1500259       293.1521126       293.2031898       293.6339596       310.3037331       293.4705454       293.1772429       293.1505403       293.1499738        293.149968       293.1499963       293.1499999            293.15            293.15            293.15            293.15            293.15
   0.001916976631       293.1500777       293.1543694       293.2260505       293.6115332       313.1202522       293.4491548       293.1916939       293.1513271       293.1499933       293.1499606       293.1499935       293.1499996            293.15            293.15            293.15            293.15            293.15
   0.002167409044       293.1501968       293.1578901       293.2464944       293.5836339       316.1554121       293.3985515       293.2067771       293.1527724       293.1500479       293.1499533       293.1499896       293.1499992            293.15            293.15            293.15            293.15            293.15
   0.002417841458       293.1504389       293.1627924        293.260416       293.5738273       319.3637408       293.3366354        293.219996       293.1551185       293.1501706       293.1499472       293.1499842       293.1499985            293.15            293.15            293.15            293.15            293.15
   0.002668273871       293.1508844       293.1689618       293.2651843       293.5952717       322.7217094       293.2803101       293.2290031       293.1585493       293.1504122       293.1499452       293.1499772       293.1499974       293.1499999            293.15            293.15            293.15            293.15
   0.002918706284       293.1516379       293.1760172       293.2604216       293.6482528       326.2162787       293.2392192       293.2322485       293.1631207        293.150842       293.1499525       293.1499687       293.1499955       293.1499998            293.15            293.15            293.15            293.15
   0.003169138698       293.1528224       293.1833375       293.2479233       293.7263866        329.839551       293.2155522       293.2293692       293.1687041       293.1515468       293.1499778       293.1499592       293.1499927       293.1499996            293.15            293.15            293.15            293.15
   0.003419571111       293.1545674       293.1901378       293.2308292       293.8243927       333.5824248       293.2087505       293.2211597       293.1749632       293.1526246       293.1500343       293.1499498       293.1499887       293.1499992            293.15            293.15            293.15            293.15
   0.003670003524        293.156991       293.1955923       293.2126663       293.9382489       337.4339253       293.2159419       293.2092764       293.1813659       293.1541718        293.150142       293.1499427       293.1499832       293.1499985       293.1499999            293.15            293.15            293.15
   0.003920435938       293.1601781       293.1989871       293.1966056       294.0646048       341.3902787       293.2327045       293.1957857       293.1872291       293.1562662       293.1503285       293.1499415       293.1499762       293.1499974       293.1499998            293.15            293.15            293.15
   0.004170868351       293.1641545       293.1998518       293.1847005        294.199401       345.4587352        293.254127       293.1826102       293.1918109       293.1589467       293.1506298       293.1499516        293.149968       293.1499957       293.1499997            293.15            293.15            293.15
   0.004421300765       293.1688629       293.1980383       293.1776134       294.3388864       349.6538843       293.2757566       293.1712441       293.1944404       293.1621906       293.1510915       293.1499794       293.1499592       293.1499932       293.1499994            293.15            293.15            293.15
   0.004671733178        293.174142        293.193753       293.1751205       294.4809066       353.9896826       293.2941863       293.1626793       293.1946443       293.1658938       293.1517652       293.1500341       293.1499513       293.1499896       293.1499989       293.1499999            293.15            293.15
   0.004922165591       293.1797211       293.1875487        293.176289        294.625675       358.4752306       293.3078368       293.1572754       293.1922503       293.1698559       293.1527052        293.150128       293.1499466       293.1499849       293.1499982       293.1499999            293.15            293.15
   0.005172598005        293.185227       293.1802892       293.1796574        294.775199       363.1176874       293.3144569       293.1547369       293.1874499       293.1737781       293.1539619       293.1502772       293.1499484       293.1499791       293.1499971       293.1499998            293.15            293.15
   0.005423030418       293.1902165       293.1729702       293.1837118       294.9321821       367.9183083       293.3164692       293.1543174       293.1807922       293.1772846       293.1555733       293.1505041       293.1499608       293.1499723       293.1499956       293.1499997            293.15            293.15
   0.005673462831       293.1942368       293.1664606       293.1874369        295.099146       372.8763721       293.3176065        293.155171       293.1731023       293.1799671       293.1575531       293.1508356       293.1499889       293.1499653       293.1499933       293.1499994            293.15            293.15
   0.005923895245        293.196901       293.1614017       293.1905116       295.2777997       377.9906948       293.3214121       293.1566457       293.1653387       293.1814492       293.1598784       293.1513038       293.1500385       293.1499592       293.1499904        293.149999       293.1499999            293.15
   0.006174327658       293.1979613       293.1582007       293.1931717       295.4688341       383.2574744       293.3334694       293.1584219       293.1583931       293.1814618       293.1624778       293.1519437       293.1501172       293.1499559       293.1499867       293.1499984       293.1499999            293.15
   0.006424760072        293.197358        293.157044       293.1959463       295.6719755       388.6834245        293.349973       293.1605229       293.1529337       293.1799073       293.1652237       293.1527914       293.1502355       293.1499578       293.1499823       293.1499975       293.1499998            293.15
   0.006675192485       293.1952321       293.1579341       293.1993911       295.8865274       394.2737905         293.36893       293.1631788       293.1493622       293.1768982       293.1679328       293.1538793       293.1504068       293.1499681       293.1499776       293.1499963       293.1499996            293.15
   0.006925624898       293.1918962       293.1607578       293.2038908       296.1120158       400.0327791       293.3895062       293.1666382       293.1478362       293.1727602       293.1703788       293.1552301       293.1506482         293.14999        293.149973       293.1499946       293.1499994            293.15
   0.007176057312       293.1878113       293.1653294       293.2095662       296.3485738       405.9729645       293.4031515       293.1710322       293.1482877        293.168004       293.1723203       293.1568492       293.1509803       293.1500272       293.1499696       293.1499924        293.149999       293.1499999
   0.007426489725       293.1835063       293.1713954       293.2162828       296.5966551       412.0780724       293.4256256       293.1763148       293.1504898       293.1632537       293.1735382       293.1587172       293.1514264       293.1500848       293.1499687       293.1499897       293.1499985       293.1499999
   0.007676922139       293.1794532       293.1787093       293.2237307       296.8566874       418.3559078       293.4522414       293.1822768       293.1542276       293.1591552       293.1738784       293.1607837        293.152012        293.150169       293.1499722       293.1499865       293.1499978       293.1499998
   0.007927354552       293.1760772       293.1869706       293.2315198       297.1288794       424.8125789       293.4810449       293.1886181       293.1592912       293.1562979       293.1732912       293.1629627       293.1527626       293.1502889       293.1499821        293.149983       293.1499968       293.1499997
   0.008177786965       293.1737722       293.1958259       293.2392657        297.413608       431.4538418        293.511134       293.1950142       293.1654237       293.1551409       293.1718577       293.1651356       293.1537009       293.1504561        293.150001       293.1499797       293.1499955       293.1499995
   0.008428219379       293.1729389       293.2047614       293.2465337       297.7107451        438.280893       293.5419189       293.2010305       293.1722674       293.1559479       293.1698018       293.1671583       293.1548414       293.1506847       293.1500318       293.1499772       293.1499938       293.1499993
   0.008678651792       293.1739345       293.2131323       293.2528908       298.0206111       445.2964211       293.5732883       293.2061615       293.1794208       293.1587755       293.1674708       293.1688819       293.1561879        293.150992       293.1500782       293.1499764       293.1499918       293.1499989
   0.008929084205       293.1769872        293.220256       293.2579244       298.3434704        452.503328       293.6052969       293.2099138       293.1864237       293.1634817       293.1653027        293.170176       293.1577285       293.1513975        293.150145       293.1499787       293.1499894       293.1499983
   0.009179516619       293.1822178       293.2255012       293.2612317       298.6796767       459.9055953       293.6380049        293.211848       293.1927518       293.1697434       293.1637667       293.1709553       293.1594312       293.1519224        293.150239       293.1499858        293.149987       293.1499976
   0.009429949032       293.1894285       293.2284446       293.2625089       299.0297965       467.5082245       293.6716464       293.2117241        293.197859       293.1770765       293.1632877       293.1712042       293.1612437       293.1525883       293.1503686       293.1499994       293.1499848       293.1499966
   0.009680381446       293.1981044       293.2288841        293.261651       299.3946478       475.3169399       293.7065157       293.2095464       293.2012505       293.1848606       293.1641749       293.1709892       293.1630943       293.1534144       293.1505447       293.1500216       293.1499833       293.1499954
   0.009930813859       293.2074576       293.2268931       293.2588114       299.7752734       483.3380364       293.7430261        293.205586       293.2025608       293.1923734       293.1665706       293.1704602       293.1648976       293.1544156       293.1507799       293.1500548       293.1499832       293.1499939
    0.01018124627        293.216502       293.2228928       293.2544087       300.1728768       491.5784491       293.7817526       293.2003598       293.2017007       293.1988461       293.1704103       293.1698405       293.1665644       293.1555984       293.1510891       293.1501027       293.1499855       293.1499921
    0.01043167869       293.2241586       293.2175858       293.2490868       300.5887763       500.0457728       293.8235183       293.1945805       293.1988342       293.2035465        293.175396       293.1693969       293.1680139       293.1569587       293.1514886         293.15017       293.1499915       293.1499902
     0.0106821111       293.2293852       293.2118537       293.2436322       301.0246749        508.745953        293.869244       293.1890738        293.194393       293.2058811       293.1810036       293.1693924       293.1691872       293.1584784       293.1519957       293.1502634       293.1500023       293.1499884
    0.01093254351       293.2313385       293.2066363       293.2388961       301.4815815       517.6843407       293.9198336       293.1846759       293.1890304       293.2054916       293.1865344       293.1700325       293.1700577       293.1601241       293.1526272       293.1503909       293.1500197       293.1499869
    0.01118297593       293.2295083       293.2027889       293.2356974       301.9606531       526.8663831        293.976061       293.1821231       293.1835358       293.2023304       293.1912014       293.1714133       293.1706377       293.1618463       293.1533979       293.1505622       293.1500456       293.1499863
    0.01143340834       293.2238768       293.2009466       293.2347221       302.4623892       536.2972528       294.0386551       293.1819609       293.1787176       293.1967478        293.194236        293.173481       293.1709784       293.1635818       293.1543186       293.1507886       293.1500828       293.1499874
    0.01168384075       293.2150249       293.2014206       293.2364054       302.9879274       545.9817913       294.1077054       293.1844603       293.1752782       293.1894449       293.1950432       293.1760201       293.1711604       293.1652575       293.1553942       293.1510832       293.1501354        293.149991
    0.01193427317       293.2042845       293.2041431       293.2408226       303.5380136       555.9246335       294.1831068       293.1895522       293.1737076       293.1813837       293.1932923       293.1786611       293.1712757       293.1667973       293.1566209       293.1514602       293.1502084       293.1499983
    0.01218470558       293.1932227       293.2087372       293.2476754       304.1129916       566.1295042       294.2644867       293.1968277       293.1742158       293.1736597       293.1889999       293.1809253       293.1714042       293.1681297       293.1579842       293.1519345       293.1503081       293.1500102
    0.01243513799       293.1835272       293.2145865       293.2563399       304.7133975       576.6011653       294.3514192       293.2056118       293.1767051        293.167346       293.1825632       293.1823028       293.1715901       293.1691956       293.1594576       293.1525209       293.1504421       293.1500282
    0.01268557041       293.1768766        293.220957       293.2659778       305.3397582       587.3437903       294.4434058       293.2150737       293.1807965       293.1633375       293.1747529       293.1823466       293.1718205       293.1699531       293.1610014       293.1532325       293.1506192       293.1500542
    0.01293600282       293.1745937       293.2271613       293.2756695       305.9927334       598.3612493       294.5399964       293.2243754       293.1859767       293.1622274       293.1666618        293.180767       293.1720152       293.1703805       293.1625628       293.1540792       293.1508497       293.1500912
    0.01318643523       293.1774546       293.2327069        293.284547       306.6731741       609.6571435       294.6408143       293.2327967        293.191742       293.1642434       293.1595047       293.1775096       293.1720324       293.1704743       293.1640781       293.1550656       293.1511451       293.1501431
    0.01343686765       293.1855278        293.237393       293.2919046       307.3821205        621.234319       294.7456327       293.2398334       293.1976881       293.1692391       293.1544642        293.172807       293.1716948       293.1702456       293.1654758       293.1561894       293.1515175       293.1502148
    0.01368730006        293.198076       293.2413434       293.2973165         308.12074       633.0937385       294.8544058       293.2452594        293.203549       293.1767756       293.1524895       293.1671787        293.170821       293.1697141       293.1666819       293.1574381       293.1519796        293.150312
    0.01393773247       293.2139364       293.2449696       293.3006791        308.890235       645.2310332       294.9672693       293.2491486       293.2092469       293.1862207       293.1541193        293.161391       293.1692857       293.1689015        293.167625       293.1587877       293.1525431       293.1504418
    0.01418816489       293.2314714        293.248868        293.302251       309.6915403       657.6238815       295.0844239       293.2518367       293.2148652       293.1967914       293.1593729       293.1563634       293.1670429       293.1678261       293.1682415       293.1602014       293.1532183       293.1506121
     0.0144385973       293.2488753       293.2536743        293.302569       310.5238522       670.1461539       295.2059264       293.2538511       293.2205951       293.2076112        293.167708       293.1530307       293.1641873       293.1665028       293.1684818       293.1616283       293.1540117       293.1508324
    0.01468902971       293.2645433       293.2598619       293.3023968       311.3588993       680.5272701       295.3290258       293.2557951       293.2266468        293.217818       293.1781613        293.152168        293.160962       293.1649483       293.1683136       293.1630052        293.154925        293.151113
    0.01493946213       293.2773503       293.2676001       293.3023192        312.109621       683.2878269       295.4418029       293.2581337       293.2331447        293.226669        293.189491       293.1542674       293.1577595       293.1631915       293.1677263       293.1642584       293.1559527       293.1514651
    0.01518989454        293.286767       293.2766525       293.3025126       312.7977354       685.7180026       295.5338227       293.2610146        293.240031       293.2336404       293.2004262       293.1593884       293.1550837       293.1612834       293.1667332       293.1653085       293.1570805       293.1518999
    0.01544032695         293.29283       293.2863755        293.302555       313.4559276       688.6901528       295.6047781        293.264132       293.2469991       293.2385005        293.209877       293.1671459       293.1534743       293.1593075       293.1653729       293.1660767       293.1582832        293.152428
    0.01569075937       293.2959781        293.295872       293.3015018       314.1225087       691.9266383       295.6655428       293.2667196       293.2534763       293.2413464       293.2171309       293.1767179       293.1534189       293.1573988       293.1637097        293.166492       293.1595238       293.1530583
    0.01594119178       293.2968452       293.3040621       293.2982787       314.8216748       695.1936213       295.7317984       293.2677231       293.2587595       293.2424636       293.2218336       293.1870332       293.1552699       293.1557356       293.1618336       293.1664988       293.1607531       293.1537964
    0.01619162419       293.2960901        293.309871       293.2922435       315.5601372        698.397582       295.8159485       293.2661288       293.2620636       293.2422403       293.2240406       293.1969178       293.1591579         293.15454       293.1598576       293.1660644       293.1619109       293.1546432
    0.01644205661       293.2942584         293.31243        293.283599       316.3299625       701.5559091       295.9221469       293.2613039       293.2626979       293.2409997       293.2240783       293.2053121       293.1649318       293.1540561       293.1579151       293.1651848       293.1629289       293.1555929