# Probe 0 (2.4 0 1.5)
#           Probe                 0
#            Time
    1.1999904e-06      0.9999683232
  2.639965056e-06       0.999930307
  4.367944597e-06      0.9998846792
  6.441505713e-06      0.9998299138
   8.92973777e-06      0.9997641782
  1.191552707e-05      0.9996852715
  1.549838863e-05      0.9995905475
  1.979776087e-05      0.9994768255
  2.495674128e-05      0.9993402871
  3.114713435e-05      0.9991763373
  3.857523794e-05      0.9989794432
  4.748896225e-05      0.9987429342
  5.818543142e-05       0.998458783
  7.102064463e-05       0.998117326
  8.642131685e-05      0.9977069136
  0.0001049009832       0.997213432
  0.0001270765827      0.9966197889
  0.0001536896689       0.995905243
  0.0001856219625      0.9950448394
  0.0002239407148      0.9940079771
  0.0002699019884      0.9927580164
  0.0003250351347      0.9912495511
  0.0003911802278      0.9894267329
  0.0004705543394      0.9872204858
  0.0005658032734      0.9845455998
  0.0006799700095      0.9812993421
  0.0008169700928      0.9773440993
  0.0009814618316      0.9725042205
   0.001179117227      0.9665478215
   0.001416111804      0.9591909786
   0.001666544217      0.9511681414
   0.001916976631      0.9429211822
   0.002167409044      0.9344545257
   0.002417841458      0.9257459423
   0.002668273871       0.916774108
   0.002918706284      0.9075238868
   0.003169138698      0.8979876451
   0.003419571111      0.8881629396
   0.003670003524      0.8780463319
   0.003920435938      0.8676291121
   0.004170868351      0.8568991088
   0.004421300765       0.845844883
   0.004671733178      0.8344577583
   0.004922165591      0.8227304404
   0.005172598005      0.8106547295
   0.005423030418        0.79822103
   0.005673462831      0.7854194018
   0.005923895245      0.7722401028
   0.006174327658      0.7586732934
   0.006424760072      0.7447088452
   0.006675192485       0.730336446
   0.006925624898      0.7155458398
   0.007176057312      0.7003268761
   0.007426489725      0.6846694455
   0.007676922139       0.668563113
   0.007927354552      0.6519973571
   0.008177786965      0.6349617572
   0.008428219379      0.6174462185
   0.008678651792      0.5994403393
   0.008929084205      0.5809335554
   0.009179516619      0.5619152363
   0.009429949032      0.5423747779
   0.009680381446      0.5223015872
   0.009930813859      0.5016850365
    0.01018124627      0.4805144108
    0.01043167869      0.4587789096
     0.0106821111      0.4364677011
    0.01093254351      0.4135700224
    0.01118297593      0.3900752489
    0.01143340834      0.3659729352
    0.01168384075      0.3412528993
    0.01193427317      0.3159052811
    0.01218470558      0.2899207691
    0.01243513799      0.2632903899
    0.01268557041      0.2360060321
    0.01293600282      0.2080608365
    0.01318643523       0.179449984
    0.01343686765      0.1501722864
    0.01368730006      0.1202337158
    0.01393773247     0.08965699923
    0.01418816489     0.05851673475
     0.0144385973     0.02717930931
    0.01468902971    0.002184366803
    0.01493946213  -0.0001984028635
    0.01518989454   4.868754294e-05
    0.01544032695   0.0001563538644
    0.01569075937   0.0001614006794
    0.01594119178   0.0001352398735
    0.01619162419   0.0001125563748
    0.01644205661   0.0001051006014
    0.01669248902   0.0001059452596
    0.01694292143   0.0001098457721
    0.01719335385   0.0001135517338
    0.01744378626   0.0001139924203
    0.01769421867   0.0001120121752
    0.01794465109   0.0001097169898
     0.0181950835    0.000108119603
    0.01844551591   0.0001067474335
    0.01869594833   0.0001049533172
    0.01894638074   0.0001028120194
    0.01919681315   0.0001006956882
    0.01944724557   9.879815985e-05
    0.01969767798   9.692217711e-05
    0.01994811039   9.483253828e-05
    0.02019854281   9.259174826e-05
    0.02044897522   9.048840236e-05
    0.02069940763   8.884943376e-05
    0.02094984005   8.767032723e-05
    0.02120027246   8.678953066e-05
    0.02145070487   8.614525194e-05
    0.02170113729    8.56675966e-05
     0.0219515697   8.526482973e-05
    0.02220200211   8.487768676e-05
    0.02245243453   8.450200359e-05
    0.02270286694   8.413094886e-05
    0.02295329935   8.367466175e-05
    0.02320373177   8.297470914e-05
    0.02345416418   8.188113079e-05
    0.02370459659   8.032791633e-05
    0.02395502901   7.838431627e-05
    0.02420546142    7.62299648e-05
    0.02445589384   7.402126774e-05
    0.02470632625   7.187401766e-05
    0.02495675866   6.983457461e-05
    0.02520719108   6.790462847e-05
    0.02545762349   6.609472593e-05
     0.0257080559   6.445731325e-05
    0.02595848832   6.304577888e-05
    0.02620892073   6.183284007e-05
    0.02645935314    6.07176657e-05
    0.02670978556   5.959780451e-05
    0.02696021797    5.84516829e-05
    0.02721065038   5.729916413e-05
     0.0274610828    5.61389508e-05
    0.02771151521   5.496047741e-05
    0.02796194762   5.374794011e-05
    0.02821238004   5.302131458e-05
    0.02846281245   5.205797315e-05
    0.02871324486   5.090478308e-05
    0.02896367728   4.876620411e-05
    0.02921410969   4.796216263e-05
     0.0294645421    4.77827848e-05
    0.02971497452   4.715087584e-05
    0.02996540693   4.596054956e-05
    0.03021583934   4.465005264e-05
    0.03046627176   4.369451009e-05
    0.03071670417   4.314925662e-05
    0.03096713658   4.276444137e-05
      0.031217569   4.231515515e-05
    0.03146800141   4.174991072e-05
    0.03171843382   4.113804388e-05
    0.03196886624   4.053371137e-05
    0.03221929865   3.995068216e-05
    0.03246973106   3.937722205e-05
    0.03272016348   3.881733022e-05
    0.03297059589   3.828541373e-05
     0.0332210283   3.778300711e-05
    0.03347146072   3.729450614e-05
    0.03372189313   3.680356849e-05
    0.03397232554   3.630785704e-05
    0.03422275796   3.581102441e-05
    0.03447319037   3.533092822e-05
    0.03472362278   3.486028025e-05
     0.0349740552   3.439508002e-05
    0.03522448761   3.395623811e-05
    0.03547492002   3.358601492e-05
    0.03572535244   3.327703412e-05
    0.03597578485   3.295662036e-05
    0.03622621726   3.253780604e-05
    0.03647664968   3.201465558e-05
    0.03672708209   3.141997989e-05
     0.0369775145   3.094371248e-05
    0.03722794692   3.024629425e-05
    0.03747837933   2.888786405e-05
    0.03772881174   2.879882554e-05
    0.03797924416   2.895465529e-05
    0.03822967657   0.0006835791972
    0.03848010898    0.001572272339
     0.0387305414    0.002528675324
    0.03898097381    0.003491111658
    0.03923140622     0.00445680183
    0.03948183864    0.005431930492
    0.03973227105    0.006393748049
    0.03998270346    0.007338521489
    0.04023313588    0.008282623479
    0.04048356829    0.009224779116
     0.0407340007     0.01015347605
    0.04098443312     0.01105820308
    0.04123486553     0.01193425065
    0.04148529795     0.01277466742
    0.04173573036     0.01357614575
    0.04198616277     0.01433761444
    0.04223659519     0.01506586146
     0.0424870276     0.01577092487
    0.04273746001     0.01645932384
    0.04298789243     0.01713348874
    0.04323832484     0.01780252059
    0.04348875725      0.0184720041
    0.04373918967     0.01914744506
    0.04398962208     0.01983253821
    0.04424005449     0.02052835666
    0.04449048691     0.02123198832
    0.04474091932     0.02193953292
    0.04499135173     0.02264852285
    0.04524178415     0.02335638433
    0.04549221656     0.02405020532
    0.04574264897     0.02472914291
    0.04599308139     0.02539906637
     0.0462435138     0.02606305983
    0.04649394621     0.02672238461
    0.04674437863     0.02736940932
    0.04699481104     0.02800348125
    0.04724524345     0.02862748312
    0.04749567587     0.02923848015
    0.04774610828     0.02982628543
    0.04799654069     0.03039388747
    0.04824697311     0.03094576872
    0.04849740552     0.03143673408
    0.04874783793     0.03190197901
    0.04899827035     0.03239655369
    0.04924870276     0.03290230255
    0.04949913517     0.03336447402
    0.04974956759     0.03380972053
             0.05     0.03424500243
          0.05025     0.03467301925
           0.0505     0.03509621413
          0.05075     0.03551451545
            0.051     0.03592667392
          0.05125     0.03633101241
           0.0515     0.03672771633
          0.05175     0.03711535486
            0.052     0.03750065977
          0.05225     0.03788343375
           0.0525     0.03826306779
          0.05275     0.03863679549
            0.053      0.0390015565
          0.05325     0.03935899945
           0.0535     0.03971286662
          0.05375     0.04006668114
            0.054     0.04042082578
          0.05425     0.04077517383
           0.0545     0.04112940703
          0.05475     0.04148071791
            0.055     0.04183044587
          0.05525     0.04218001258
           0.0555     0.04253341578
          0.05575     0.04289068042
            0.056     0.04324560933
          0.05625     0.04359351715
           0.0565     0.04393598043
          0.05675     0.04426985241
            0.057      0.0445947567
          0.05725      0.0449175918
           0.0575      0.0452399118
          0.05775     0.04556044741
            0.058     0.04587716199
          0.05825     0.04620208159
           0.0585     0.04651421965
          0.05875      0.0468197712
            0.059     0.04712271685
          0.05925     0.04742302185
           0.0595     0.04771691662
          0.05975      0.0480154895
             0.06     0.04830642794
          0.06025     0.04859533245
           0.0605     0.04887934046
          0.06075     0.04915583057
            0.061     0.04942775216
          0.06125     0.04969905149
           0.0615      0.0499702483
          0.06175     0.05023889649
            0.062     0.05050601617
          0.06225     0.05077384561
           0.0625     0.05104104562
          0.06275     0.05130463625
            0.063     0.05156327071
          0.06325     0.05181694918
           0.0635     0.05206605017
          0.06375     0.05231000139
            0.064     0.05254875573
          0.06425     0.05278294807
           0.0645      0.0530134898
          0.06475     0.05324092605
            0.065      0.0534654788
          0.06525     0.05368740485
           0.0655     0.05390707193
          0.06575     0.05412409113
            0.066     0.05433967107
          0.06625     0.05455424545
           0.0665     0.05476773154
          0.06675     0.05497956309
            0.067     0.05518932379
          0.06725     0.05539699097
           0.0675     0.05560230331
          0.06775     0.05580441543
            0.068     0.05600282385
          0.06825     0.05619782676
           0.0685     0.05639025683
          0.06875     0.05658054654
            0.069     0.05676903028
          0.06925     0.05695561603
           0.0695     0.05714034431
          0.06975     0.05732306483
             0.07     0.05750373438
          0.07025     0.05768220229
           0.0705     0.05785851554
          0.07075     0.05803306034
            0.071     0.05820644559
          0.07125     0.05837913262
           0.0715     0.05855097455
          0.07175     0.05872190997
            0.072     0.05889269843
          0.07225     0.05906403794
           0.0725     0.05923521363
          0.07275     0.05940509353
            0.073     0.05957350747
          0.07325     0.05974162885
           0.0735     0.05991012703
          0.07375     0.06007851877
            0.074     0.06024553585
          0.07425     0.06041018526
           0.0745     0.06057256129
          0.07475     0.06073281097
            0.075      0.0608905123
    0.07524752475     0.06104334421
     0.0754950495     0.06119274535
    0.07574009901     0.06133836944
    0.07598269802     0.06148141235
    0.07622529703     0.06162389832
    0.07646544554     0.06176419925
    0.07670559406     0.06190336605
    0.07694329208     0.06203991035
     0.0771809901     0.06217571415
    0.07741623762     0.06231004305
    0.07765148515     0.06244478495
    0.07788428218     0.06257883748
    0.07811707921      0.0627140801
    0.07834742574     0.06284893413
    0.07857777228     0.06298412922
    0.07880566832     0.06311742458
    0.07903356436     0.06324998719
     0.0792614604     0.06338236906
     0.0794868793     0.06351387958
    0.07971229821     0.06364631359
    0.07993523999      0.0637775841
    0.08015818177     0.06390782119
    0.08037864642     0.06403446997
    0.08059911106     0.06415897572
    0.08081709858     0.06428097307
     0.0810350861     0.06440305053
    0.08125059648     0.06452446336
    0.08146365788     0.06464501113
    0.08167671929      0.0647652805
    0.08188733171     0.06488325848
     0.0820955233     0.06499911719
    0.08230371489     0.06511471986
    0.08250948565     0.06522907818
     0.0827152564     0.06534362959
    0.08291860633     0.06545727358
    0.08312195625     0.06557124545
    0.08332288534     0.06568393418
    0.08352381444      0.0657964607
    0.08372474353     0.06590866263
    0.08392322227     0.06601921494
      0.084121701     0.06612965021
    0.08432017974     0.06624014323
    0.08451617749     0.06634939994
    0.08471217525     0.06645879064
      0.084908173     0.06656829818
    0.08510165796     0.06667654937
    0.08529514292     0.06678485281
    0.08548862789      0.0668929597
    0.08568211285     0.06700056032
    0.08587301801     0.06710599881
    0.08606392317     0.06721083546
    0.08625482833     0.06731549399
     0.0864457335      0.0674205184
     0.0866339872     0.06752467255
     0.0868222409     0.06762920935
     0.0870104946     0.06773363096
     0.0871987483     0.06783740547
    0.08738427369     0.06793877867
    0.08756979908     0.06803949326
    0.08775532446     0.06813996408
    0.08793808081     0.06823831836
    0.08812083716     0.06833663139
    0.08830359352     0.06843500501
    0.08848634987     0.06853433946
    0.08866625065     0.06863251189
    0.08884615143     0.06873087843
    0.08902605222      0.0688288498
      0.089205953     0.06892700964
    0.08938290459     0.06902357562
    0.08955985618     0.06912019032
    0.08973680777     0.06921730029
    0.08991375936      0.0693143963
    0.09008766006     0.06940990194
    0.09026156076     0.06950516802
    0.09043546146     0.06960012997
    0.09060936216     0.06969485644
    0.09078010103     0.06978767801
     0.0909508399      0.0698803466
    0.09112157877     0.06997284854
    0.09129231764     0.07006450261
    0.09146305651     0.07015622435
    0.09163044756     0.07024637058
    0.09179783861     0.07033615915
    0.09196522966     0.07042544836
    0.09213262071     0.07051458881
    0.09230001176     0.07060274482
    0.09246740281     0.07069076039
    0.09263115492     0.07077658112
    0.09279490703     0.07086216182
    0.09295865914     0.07094784368
    0.09312241126     0.07103364524
    0.09328616337     0.07111955854
    0.09344601662     0.07120306503
    0.09360586988     0.07128663247
    0.09376572313     0.07137009799
    0.09392557638     0.07145350491
    0.09408542964     0.07153692472
    0.09424528289     0.07162032694
    0.09440513614     0.07170359626
    0.09456054903      0.0717843549
    0.09471596191     0.07186494762
     0.0948713748     0.07194553188
    0.09502678768     0.07202631884
    0.09518220057     0.07210745587
    0.09533761345     0.07218892179
    0.09549302634     0.07227055362
    0.09564325879     0.07234941644
    0.09579349125     0.07242809536
     0.0959437237     0.07250660123
    0.09609395616     0.07258504236
    0.09624418861     0.07266325357
    0.09639442107      0.0727410917
    0.09654465352     0.07281843514
    0.09669488598     0.07289524715
    0.09684511844     0.07297156586
    0.09699535089     0.07304749595
    0.09714558335     0.07312313874
     0.0972958158     0.07319849432
    0.09744604826     0.07327345854
    0.09758793447     0.07334375991
    0.09772982067     0.07341347905
    0.09787170688      0.0734826255
    0.09801359309     0.07355132426
     0.0981554793     0.07361973633
     0.0982973655     0.07368798112
    0.09843925171     0.07375606327
    0.09858113792     0.07382382629
    0.09872302413     0.07389104812
    0.09886491034     0.07395755773
    0.09900679654     0.07402332083
    0.09914868275     0.07408844035
    0.09929056896     0.07415309713
    0.09943245517     0.07421746602
    0.09957434138     0.07428164948
    0.09971622758     0.07434565792
    0.09985811379     0.07440943361
              0.1     0.07447288466
     0.1001388889     0.07453459711
      0.100277392     0.07459568372
     0.1004155103      0.0746561324
      0.100553245     0.07471597202
     0.1006905971     0.07477525021
     0.1008275677     0.07483401342
     0.1009641578     0.07489230983
     0.1011003684     0.07495016727
     0.1012362008     0.07500769413
     0.1013716558     0.07506490033
     0.1015067345     0.07512162478
      0.101641438        0.07517776
     0.1017761415     0.07523345682
     0.1019104698     0.07528847811
     0.1020444239      0.0753428533
     0.1021780049     0.07539669772
     0.1023112138     0.07545015886
     0.1024440517     0.07550334613
     0.1025765195     0.07555628988
     0.1027086183     0.07560893157
     0.1028403492     0.07566116129
     0.1029717131      0.0757128784
     0.1031027111     0.07576404377
     0.1032333443     0.07581468858
     0.1033632516     0.07586475958
     0.1034927982     0.07591450103
     0.1036219848     0.07596393702
     0.1037508127     0.07601307454
     0.1038792826     0.07606189482
     0.1040073957     0.07611036868
      0.104135153     0.07615845329
     0.1042625553     0.07620608885
     0.1043896038     0.07625321923
     0.1045162993     0.07629982178
     0.1046426429     0.07634593426
     0.1047686356     0.07639166359
     0.1048942783     0.07643718475
     0.1050195719     0.07648267798
     0.1051445176     0.07652827903
     0.1052691161     0.07657406513
     0.1053933686     0.07662001508
     0.1055172759     0.07666597781
      0.105640839     0.07671169537
     0.1057640589     0.07675687858
     0.1058869365     0.07680528833
     0.1060094728     0.07685420572
     0.1061320091     0.07690301331
     0.1062542041     0.07695155176
     0.1063760586     0.07700001912
     0.1064975738     0.07704859744
     0.1066187505     0.07709733834
     0.1067395896     0.07714613782
     0.1068600921      0.0771947904
      0.106980259     0.07724307868
     0.1071000912     0.07729085401
     0.1072199233     0.07733821345
     0.1073394207     0.07738510622
     0.1074589182     0.07743180601
     0.1075780808     0.07747832439
     0.1076969098     0.07752477186
     0.1078154058      0.0775711948
     0.1079339019     0.07761770021
     0.1080520651     0.07766407201
     0.1081698963     0.07771018823
     0.1082873966       0.077755928
     0.1084045669     0.07780120493
      0.108521408     0.07784598835
     0.1086379209     0.07789029766
     0.1087541065     0.07793417481
     0.1088699657     0.07797768266
     0.1089854995     0.07802065262
     0.1091007088     0.07806312394
     0.1092159181      0.0781053412
     0.1093308028     0.07814657099
     0.1094453639     0.07818869284
     0.1095596023     0.07823094056
      0.109673519     0.07827300217
     0.1097871147     0.07831472244
     0.1099003904     0.07835601233
     0.1100136661     0.07839694748
     0.1101266219     0.07843555099
     0.1102392585     0.07847266839
     0.1103518952     0.07850930283
     0.1104642128     0.07854461886
     0.1105762122     0.07858040574
     0.1106882116     0.07861582603
     0.1107998928      0.0786504472
     0.1109112567     0.07868478452
     0.1110226207     0.07872059009
     0.1111336673     0.07875695048
     0.1112443976     0.07879219304
     0.1113551279     0.07882622909
     0.1114655419     0.07885929128
     0.1115756403     0.07889247416
     0.1116854242     0.07892516923
     0.1117952081      0.0789578698
     0.1119046774     0.07899027343
     0.1120141467     0.07902375135
     0.1121233015     0.07905657718
     0.1122324562     0.07908903447
     0.1123412964     0.07912204843
     0.1124498229     0.07915644648
     0.1125583494     0.07919084651
     0.1126665623     0.07922632739
     0.1127747752     0.07926043981
     0.1128826744     0.07929421523
     0.1129902608     0.07932667512
     0.1130975354      0.0793585782
       0.11320481     0.07939187342
     0.1133117728     0.07942486241
     0.1134187356     0.07945882746
     0.1135253865     0.07949496229
     0.1136320374     0.07953272236
     0.1137383765     0.07957126419
     0.1138447155     0.07960979374
     0.1139510546     0.07964861664
     0.1140570809     0.07968534307
     0.1141631072      0.0797239958
     0.1142688208     0.07976250828
     0.1143745343     0.07979818772
     0.1144799351     0.07983216733
     0.1145850241     0.07986746879
     0.1146898021     0.07990464192
     0.1147942701     0.07994044808
     0.1148987382     0.07997576613
     0.1150028962     0.08001337517
     0.1151067452     0.08005253178
      0.115210286     0.08008973352
     0.1153138268      0.0801278392
     0.1154170595      0.0801653936
     0.1155199849     0.08020196585
      0.115622604     0.08023862219
     0.1157252231     0.08027570334
     0.1158275359     0.08031341061
     0.1159295432     0.08035143167
     0.1160315506     0.08038976299
     0.1161332525     0.08042817219
       0.11623465     0.08046150433
     0.1163360474     0.08049508147
     0.1164371404      0.0805267407
     0.1165379297     0.08055673893
     0.1166384164     0.08058714557
     0.1167389031     0.08062179407
     0.1168390871     0.08065579071
     0.1169389694     0.08068941371
     0.1170388517     0.08072403581
     0.1171384322     0.08075992168
     0.1172380127     0.08079628611
     0.1173372914     0.08083275251
     0.1174365702     0.08086939877
     0.1175355472     0.08090615789
     0.1176345242     0.08094318545
     0.1177331994     0.08098036782
     0.1178318746     0.08101775433
     0.1179302481     0.08105510839
     0.1180286216     0.08109239078
     0.1181266933     0.08112934177
     0.1182244642       0.081165864
     0.1183222351     0.08120204084
     0.1184197051     0.08123780887
     0.1185171751     0.08127339312
     0.1186143444     0.08130883963
     0.1187115136     0.08134442253
     0.1188083819     0.08138017052
     0.1189052503     0.08141627972
     0.1190018179     0.08145265195
     0.1190983854     0.08148901175
     0.1191946521     0.08152569353
     0.1192906189     0.08156241428
     0.1193865858      0.0815991159
     0.1194825526     0.08163569376
     0.1195782186     0.08167198669
     0.1196738845     0.08170811064
     0.1197692497     0.08174202285
     0.1198646148     0.08177464045
     0.1199596791     0.08180693554
     0.1200547434     0.08184063725
     0.1201495069     0.08187261101
     0.1202442704     0.08190293599
      0.120338733     0.08193135112
     0.1204331956     0.08196051814
     0.1205273574       0.081988293
     0.1206215192      0.0820155879
     0.1207153802     0.08204590104
     0.1208092412     0.08207878408
     0.1209028013     0.08211130343
     0.1209963614     0.08214557508
     0.1210896207     0.08217729315
       0.12118288     0.08220858889
     0.1212758384     0.08223996399
     0.1213687969      0.0822715985
     0.1214614545     0.08230441101
     0.1215541121     0.08233645705
     0.1216464689      0.0823697564
     0.1217388257     0.08240467493
     0.1218308816     0.08243814362
     0.1219226377     0.08246866922
     0.1220143938     0.08249859072
       0.12210585     0.08252507476
     0.1221973063     0.08255255256
     0.1222887625     0.08258044573
     0.1223799179     0.08260842077
     0.1224710733     0.08263820932
     0.1225619278     0.08267172553
     0.1226527823     0.08270602736
     0.1227436369     0.08274074551
     0.1228341896     0.08277699587
     0.1229247423     0.08281387886
      0.123015295     0.08285104256
     0.1231055448     0.08288824122
     0.1231957947     0.08292556153
     0.1232860445     0.08296299309
     0.1233762944     0.08300052691
     0.1234662393     0.08303801393
     0.1235561843     0.08307553978
     0.1236461292     0.08311304408
     0.1237357683     0.08315032696
     0.1238254073     0.08318744637
     0.1239150463     0.08322434978
     0.1240046853     0.08326101613
     0.1240943243     0.08329746248
     0.1241836542     0.08333361549
     0.1242729842     0.08336967284
     0.1243623141     0.08340392393
      0.124451644     0.08343677562
     0.1245409739     0.08346897773
     0.1246299915     0.08350079171
     0.1247190091      0.0835332022
     0.1248080266     0.08356684421
     0.1248970442     0.08360236067
     0.1249857472     0.08363841119
     0.1250744502     0.08367474667
     0.1251631533     0.08370907567
     0.1252515406     0.08374116423
      0.125339928     0.08377444299
     0.1254283153     0.08380701122
     0.1255163859     0.08383733995
     0.1256044564     0.08386786707
     0.1256922102     0.08389830722
      0.125779964     0.08392947836
     0.1258674009     0.08395687947
     0.1259548379     0.08398162681
     0.1260422748     0.08400556794
     0.1261293938     0.08402922521
     0.1262165128     0.08405489795
     0.1263036318     0.08408164825
     0.1263907508     0.08410866388
     0.1264775495     0.08413822257
     0.1265643482     0.08416954389
     0.1266511469     0.08420265794
     0.1267376242     0.08423577051
     0.1268241014     0.08427152451
     0.1269105786     0.08430264183
     0.1269967332     0.08433433381
     0.1270828878     0.08436916779
     0.1271687196     0.08440511635
     0.1272545515     0.08444146191
     0.1273400607     0.08447781065
     0.1274255699     0.08451421645
     0.1275110791     0.08455063292
     0.1275962644     0.08458687017
     0.1276814497      0.0846230006
     0.1277663112     0.08465881728
     0.1278511726     0.08469439674
      0.127936034     0.08472970605
     0.1280205702     0.08476461916
     0.1281051065     0.08479932753
     0.1281896428     0.08483393314
     0.1282738527     0.08486843432
     0.1283580625     0.08490310446
      0.128441946     0.08493792811
     0.1285258295      0.0849731131
      0.128609713     0.08500866766
     0.1286932688     0.08504438571
     0.1287768246       0.085080275
     0.1288603804      0.0851161618
     0.1289439362     0.08515185962
     0.1290271617      0.0851870646
     0.1291103873     0.08522180438
     0.1291936128     0.08525603082
     0.1292765068     0.08528963185
     0.1293594008     0.08532282603
     0.1294422948      0.0853557379
     0.1295251887     0.08538851297
     0.1296077485     0.08542116273
     0.1296903082     0.08545393895
     0.1297728679     0.08548692194
     0.1298554276     0.08552014242
     0.1299376504     0.08555344427
     0.1300198731     0.08558690194
     0.1301020959      0.0856204285
     0.1301843186     0.08565393447
     0.1302662016     0.08568720966
     0.1303480846      0.0857203564
     0.1304299675     0.08575338024
     0.1305118505      0.0857863265
     0.1305937335     0.08581926342
     0.1306752724      0.0858521267
     0.1307568114     0.08588511028
     0.1308383503     0.08591824063
     0.1309198892      0.0859515242
     0.1310010812     0.08598477722
     0.1310822732     0.08601808477
     0.1311634651     0.08605137784
     0.1312446571     0.08608457866
     0.1313254991     0.08611746783
     0.1314063411     0.08615014144
     0.1314871831     0.08618258136
     0.1315680251     0.08621479171
      0.131648514      0.0862466598
      0.131729003     0.08627837462
      0.131809492      0.0863099904
      0.131889981     0.08634156359
     0.1319701138     0.08637300306
     0.1320502466     0.08640449694
     0.1321303794     0.08643607994
     0.1322105123     0.08646778234
     0.1322902858     0.08649948142
     0.1323700592     0.08653133621
     0.1324498327     0.08656335499
     0.1325296062     0.08659554035
     0.1326093797     0.08662788032
     0.1326887889     0.08666021252
     0.1327681982     0.08669266598
     0.1328476074     0.08672521538
     0.1329270166     0.08675783131
     0.1330064258     0.08679048649
     0.1330854657      0.0868229982
     0.1331645056     0.08685550825
     0.1332435455     0.08688803416
     0.1333225854     0.08692060779
     0.1334016252     0.08695325514
     0.1334802905     0.08698585387
     0.1335589558     0.08701696778
     0.1336376211     0.08704815297
     0.1337162864     0.08708060217
     0.1337945735     0.08711336077
     0.1338728605      0.0871462888
     0.1339511476     0.08717927224
     0.1340294347     0.08721227278
     0.1341077218     0.08724454283
     0.1341856251     0.08727725555
     0.1342635284     0.08731030238
     0.1343414318     0.08734363667
     0.1344193351     0.08737727561
     0.1344972384     0.08741123986
     0.1345751417     0.08744553205
     0.1346530451     0.08748012995
     0.1347305549     0.08751481715
     0.1348080648     0.08754972482
     0.1348855747     0.08758481789
     0.1349630846     0.08762007603
     0.1350405944     0.08765549661
     0.1351181043     0.08769109768
     0.1351956142     0.08772690128
     0.1352731241     0.08776292879
     0.1353502281     0.08779899302
     0.1354273322     0.08783526563
     0.1355044362     0.08787170853
     0.1355815403     0.08790826573
     0.1356586444     0.08794486669
     0.1357357484     0.08798143665
     0.1358128525     0.08801792574
     0.1358899566     0.08805431546
     0.1359666416     0.08807847792
     0.1360433266     0.08809867113
     0.1361200116     0.08811760082
     0.1361966966     0.08813620408
     0.1362733816     0.08815482972
     0.1363500667     0.08817362787