# Probe 0 (0.4 0.005 1.4)
# Probe 1 (0.9 0.005 1.4)
# Probe 2 (1.4 0.005 1.4)
# Probe 3 (1.9 0.005 1.4)
# Probe 4 (2.4 0.005 1.4)
# Probe 5 (2.9 0.005 1.4)
# Probe 6 (3.4 0.005 1.4)
# Probe 7 (3.9 0.005 1.4)
# Probe 8 (4.4 0.005 1.4)
# Probe 9 (4.9 0.005 1.4)
# Probe 10 (5.4 0.005 1.4)
# Probe 11 (5.9 0.005 1.4)
# Probe 12 (6.4 0.005 1.4)
# Probe 13 (6.9 0.005 1.4)
# Probe 14 (7.4 0.005 1.4)
# Probe 15 (7.9 0.005 1.4)
# Probe 16 (8.4 0.005 1.4)
#           Probe                 0                 1                 2                 3                 4                 5                 6                 7                 8                 9                10                11                12                13                14                15                16
#            Time
    1.1999904e-06            293.15            293.15            293.15       293.1500001       293.1647296            293.15            293.15            293.15            293.15            293.15            293.15            293.15            293.15            293.15            293.15            293.15            293.15
  2.639965056e-06            293.15            293.15            293.15       293.1500002       293.1824068            293.15            293.15            293.15       293.1499999            293.15            293.15            293.15            293.15            293.15            293.15            293.15            293.15
  4.367944597e-06            293.15            293.15            293.15       293.1500006        293.203623            293.15            293.15            293.15       293.1499999            293.15            293.15            293.15            293.15            293.15            293.15            293.15            293.15
  6.441505713e-06            293.15            293.15            293.15       293.1500012       293.2290876       293.1500001            293.15            293.15       293.1499998       293.1499999            293.15            293.15            293.15            293.15            293.15            293.15            293.15
   8.92973777e-06            293.15            293.15            293.15       293.1500024        293.259653       293.1500003            293.15            293.15       293.1499998       293.1499999            293.15            293.15            293.15            293.15            293.15            293.15            293.15
  1.191552707e-05            293.15            293.15            293.15       293.1500043       293.2963414       293.1500006            293.15            293.15       293.1499997       293.1499999            293.15            293.15            293.15            293.15            293.15            293.15            293.15
  1.549838863e-05            293.15            293.15            293.15       293.1500078       293.3403825       293.1500013            293.15            293.15       293.1499996       293.1499998            293.15            293.15            293.15            293.15            293.15            293.15            293.15
  1.979776087e-05            293.15            293.15            293.15       293.1500135       293.3932518       293.1500026            293.15            293.15       293.1499995       293.1499998            293.15            293.15            293.15            293.15            293.15            293.15            293.15
  2.495674128e-05            293.15            293.15            293.15        293.150023       293.4567212       293.1500052            293.15            293.15       293.1499994       293.1499997            293.15            293.15            293.15            293.15            293.15            293.15            293.15
  3.114713435e-05            293.15            293.15            293.15        293.150039       293.5329192       293.1500101            293.15            293.15       293.1499992       293.1499997            293.15            293.15            293.15            293.15            293.15            293.15            293.15
  3.857523794e-05            293.15            293.15            293.15       293.1500656       293.6244028       293.1500191            293.15            293.15        293.149999       293.1499996            293.15            293.15            293.15            293.15            293.15            293.15            293.15
  4.748896225e-05            293.15            293.15            293.15         293.15011       293.7342447       293.1500356            293.15            293.15       293.1499988       293.1499995            293.15            293.15            293.15            293.15            293.15            293.15            293.15
  5.818543142e-05            293.15            293.15            293.15       293.1501843       293.8661243       293.1500654            293.15            293.15       293.1499986       293.1499994            293.15            293.15            293.15            293.15            293.15            293.15            293.15
  7.102064463e-05            293.15            293.15            293.15       293.1503089       294.0244393       293.1501188            293.15            293.15       293.1499982       293.1499992            293.15            293.15            293.15            293.15            293.15            293.15            293.15
  8.642131685e-05            293.15            293.15       293.1500001       293.1505186       294.2144359       293.1502139            293.15            293.15       293.1499979        293.149999            293.15            293.15            293.15            293.15            293.15            293.15            293.15
  0.0001049009832            293.15            293.15       293.1500002       293.1508723       294.4423737        293.150382       293.1500001            293.15       293.1499974       293.1499988            293.15            293.15            293.15            293.15            293.15            293.15            293.15
  0.0001270765827            293.15            293.15       293.1500004       293.1514706       294.7156677       293.1506775       293.1500002            293.15       293.1499969       293.1499986            293.15            293.15            293.15            293.15            293.15            293.15            293.15
  0.0001536896689            293.15            293.15       293.1500011        293.152484       295.0430309       293.1511944       293.1500004            293.15       293.1499962       293.1499983            293.15            293.15            293.15            293.15            293.15            293.15            293.15
  0.0001856219625            293.15            293.15       293.1500029        293.154201       295.4344547        293.152093       293.1500011            293.15       293.1499954       293.1499979            293.15            293.15            293.15            293.15            293.15            293.15            293.15
  0.0002239407148            293.15            293.15       293.1500074       293.1571068       295.9013979       293.1536455       293.1500028            293.15       293.1499945       293.1499974            293.15            293.15            293.15            293.15            293.15            293.15            293.15
  0.0002699019884            293.15            293.15       293.1500187       293.1620035       296.4562092       293.1563054        293.150007            293.15       293.1499934       293.1499969            293.15            293.15            293.15            293.15            293.15            293.15            293.15
  0.0003250351347            293.15       293.1500001       293.1500466        293.170197       297.1121628       293.1608166       293.1500176            293.15        293.149992       293.1499962            293.15            293.15            293.15            293.15            293.15            293.15            293.15
  0.0003911802278            293.15       293.1500002       293.1501153       293.1837418       297.8824028       293.1683625        293.150044            293.15       293.1499904       293.1499953            293.15            293.15            293.15            293.15            293.15            293.15            293.15
  0.0004705543394            293.15       293.1500007       293.1502816       293.2057025       298.7786892       293.1807441       293.1501086            293.15       293.1499885       293.1499943            293.15            293.15            293.15            293.15            293.15            293.15            293.15
  0.0005658032734            293.15       293.1500023       293.1506774       293.2402354       299.8098173       293.2005011       293.1502654            293.15       293.1499862       293.1499928            293.15            293.15            293.15            293.15            293.15            293.15            293.15
  0.0006799700095            293.15       293.1500081        293.151594       293.2919813        300.980542       293.2307303        293.150638       293.1500004       293.1499835        293.149991       293.1499999            293.15            293.15            293.15            293.15            293.15            293.15
  0.0008169700928            293.15       293.1500274       293.1536439       293.3642339       302.3004245       293.2743092       293.1515017       293.1500021       293.1499804       293.1499885       293.1499998            293.15            293.15            293.15            293.15            293.15            293.15
  0.0009814618316       293.1500003       293.1500902       293.1580074       293.4545398       303.7971949       293.3315937       293.1534291       293.1500101       293.1499768       293.1499852       293.1499996            293.15            293.15            293.15            293.15            293.15            293.15
   0.001179117227       293.1500013       293.1502852       293.1666633       293.5486192       305.5525986       293.3963683       293.1574994       293.1500441        293.149973       293.1499808       293.1499991            293.15            293.15            293.15            293.15            293.15            293.15
   0.001416111804       293.1500067       293.1508512        293.182128       293.6174137       307.7435234       293.4512808       293.1653897       293.1501749       293.1499703       293.1499749       293.1499981       293.1499999            293.15            293.15            293.15            293.15            293.15
   0.001666544217       293.1500259       293.1521117        293.203178       293.6317055        310.294139       293.4702545       293.1772335       293.1505401       293.1499738        293.149968       293.1499963       293.1499999            293.15            293.15            293.15            293.15            293.15
   0.001916976631       293.1500776       293.1543669       293.2260179        293.608571       313.1078732       293.4487581        293.191672       293.1513264       293.1499932       293.1499606       293.1499935       293.1499996            293.15            293.15            293.15            293.15            293.15
   0.002167409044       293.1501967       293.1578845       293.2464308       293.5798749       316.1396856       293.3980583       293.2067357       293.1527708       293.1500478       293.1499533       293.1499896       293.1499992            293.15            293.15            293.15            293.15            293.15
   0.002417841458       293.1504386       293.1627813       293.2603151       293.5691926       319.3442046       293.3360553       293.2199299       293.1551151       293.1501705       293.1499472       293.1499842       293.1499985            293.15            293.15            293.15            293.15            293.15
   0.002668273871       293.1508838       293.1689426       293.2650381       293.5896896       322.6979035       293.2796566       293.2289056        293.158543        293.150412       293.1499451       293.1499772       293.1499974       293.1499999            293.15            293.15            293.15            293.15
   0.002918706284       293.1516368       293.1759871       293.2602296       293.6416175       326.1878287       293.2384827       293.2321168       293.1631096       293.1508414       293.1499525       293.1499687       293.1499955       293.1499998            293.15            293.15            293.15            293.15
   0.003169138698       293.1528202       293.1832939       293.2476919       293.7185523       329.8061121       293.2147177       293.2292043        293.168686       293.1515456       293.1499778       293.1499592       293.1499927       293.1499996            293.15            293.15            293.15            293.15
   0.003419571111       293.1545635       293.1900778       293.2305693       293.8151995       333.5435264       293.2078241        293.220964       293.1749354       293.1526225       293.1500343       293.1499498       293.1499887       293.1499992            293.15            293.15            293.15            293.15
   0.003670003524       293.1569845        293.195513       293.2123845       293.9275646       337.3888778       293.2149378       293.2090528       293.1813256       293.1541682       293.1501418       293.1499427       293.1499832       293.1499985       293.1499999            293.15            293.15            293.15
   0.003920435938       293.1601675       293.1988869       293.1963074       294.0523045       341.3380945       293.2316258        293.195539       293.1871732       293.1562603       293.1503282       293.1499415       293.1499762       293.1499974       293.1499998            293.15            293.15            293.15
   0.004170868351       293.1641384       293.1997302       293.1843876       294.1853334       345.3985464       293.2529521       293.1823446        293.191737       293.1589375       293.1506292       293.1499516        293.149968       293.1499957       293.1499997            293.15            293.15            293.15
   0.004421300765       293.1688391       293.1978962       293.1772829       294.3228703       349.5850632       293.2744641        293.170963       293.1943469       293.1621769       293.1510905       293.1499794       293.1499592       293.1499932       293.1499994            293.15            293.15            293.15
   0.004671733178       293.1741083       293.1935926       293.1747683       294.4627427       353.9117278       293.2927508        293.162385       293.1945307        293.165874       293.1517636        293.150034       293.1499513       293.1499896       293.1499989       293.1499999            293.15            293.15
   0.004922165591       293.1796751       293.1873729       293.1759108       294.6051677        358.387509       293.3062267       293.1569682       293.1921173       293.1698282       293.1527025       293.1501278       293.1499466       293.1499849       293.1499982       293.1499999            293.15            293.15
   0.005172598005       293.1851661       293.1801013       293.1792497       294.7521587        363.019898       293.3154314       293.1544186       293.1872996       293.1737408       293.1539578        293.150277       293.1499484       293.1499791       293.1499971       293.1499998            293.15            293.15
   0.005423030418       293.1901385       293.1727728       293.1832735       294.9064203       367.8123846       293.3224535       293.1539961       293.1806275       293.1772362       293.1555671       293.1505036       293.1499607       293.1499723       293.1499956       293.1499997            293.15            293.15
   0.005673462831       293.1941397       293.1662539        293.186973       295.0704282       372.7617587       293.3298726       293.1548701       293.1729263       293.1799061        293.157544       293.1508348       293.1499888       293.1499653       293.1499933       293.1499994            293.15            293.15
   0.005923895245       293.1967836       293.1611835       293.1900334       295.2458348       377.8672027       293.3397158       293.1563967       293.1651543       293.1813749       293.1598655       293.1513025       293.1500384       293.1499592       293.1499904        293.149999       293.1499999            293.15
   0.006174327658       293.1978231       293.1579676       293.1926941       295.4332609       383.1298972         293.35293       293.1582556        293.158202        293.181374         293.16246       293.1519417        293.150117       293.1499559       293.1499867       293.1499984       293.1499999            293.15
   0.006424760072       293.1971993       293.1567924       293.1954833       295.6324759       388.5528496       293.3694555       293.1604426       293.1527374       293.1798065          293.1652       293.1527884       293.1502353       293.1499578       293.1499823       293.1499975       293.1499998            293.15
   0.006675192485       293.1950535       293.1576617        293.198951       295.8428764       394.1401414       293.3886687       293.1631456       293.1491623       293.1767856       293.1679018       293.1538748       293.1504064       293.1499681       293.1499776       293.1499963       293.1499996            293.15
   0.006925624898       293.1916986       293.1604639       293.2034727       296.0640119       399.8958551       293.4098857       293.1665838       293.1476355       293.1726376       293.1703395       293.1552236       293.1506476       293.1499899        293.149973       293.1499946       293.1499994            293.15
   0.007176057312       293.1875967       293.1650144       293.2091586       296.2958681       405.8234014       293.4326855       293.1708919       293.1480879       293.1678734       293.1722716       293.1568401       293.1509793       293.1500272       293.1499696       293.1499924        293.149999       293.1499999
   0.007426489725       293.1832725        293.171063       293.2158649       296.5386281        411.908357       293.4569118       293.1760558       293.1502932       293.1631171       293.1734796       293.1587048       293.1514248       293.1500847       293.1499687       293.1499897       293.1499985       293.1499999
   0.007676922139       293.1791969       293.1783663       293.2232746        296.792694       418.1655838       293.4825593       293.1818983       293.1540336       293.1590143       293.1738096        293.160767       293.1520097       293.1501688       293.1499722       293.1499865       293.1499978       293.1499998
   0.007927354552       293.1757961       293.1866219       293.2309954       297.0585146       424.6023221       293.5096038       293.1881382       293.1590949       293.1561534       293.1732125       293.1629409       293.1527593       293.1502886       293.1499821        293.149983       293.1499968       293.1499997
   0.008177786965       293.1734659       293.1954717       293.2386396       297.3367397       431.2227363       293.5380105       293.1944501       293.1652132       293.1549925       293.1717698       293.1651076       293.1536961       293.1504556        293.150001       293.1499797       293.1499955       293.1499995
   0.008428219379       293.1726079       293.2043938       293.2457808       297.6273813        438.026714       293.5675214       293.2003873       293.1720276       293.1557939       293.1697056       293.1671232       293.1548347        293.150684       293.1500318       293.1499771       293.1499938       293.1499993
   0.008678651792       293.1735791       293.2127368        293.252002       297.9306185       445.0163629       293.5979992       293.2054327       293.1791355       293.1586133       293.1673674       293.1688389       293.1561788       293.1509909       293.1500781       293.1499764       293.1499918       293.1499989
   0.008929084205       293.1766062       293.2198162       293.2569146       298.2465054       452.1948772       293.6292803       293.2090929       293.1860797       293.1633077        293.165193       293.1701245       293.1577163       293.1513958       293.1501448       293.1499787       293.1499894       293.1499983
   0.009179516619       293.1818119       293.2249988       293.2601412       298.5751892       459.5666503       293.6612498       293.2109444       293.1923413       293.1695533       293.1636513        293.170895       293.1594154         293.15192       293.1502387       293.1499858        293.149987       293.1499976
   0.009429949032       293.1889986       293.2278653       293.2613937       298.9171672       467.1368329       293.6939218        293.210767       293.1973802       293.1768654       293.1631663       293.1711349       293.1612233       293.1525849       293.1503682       293.1499994       293.1499848       293.1499966
   0.009680381446       293.1976502       293.2282229       293.2605695       299.2729269       474.9110673        293.727507       293.2085797       293.2007075       293.1846231       293.1640461       293.1709112       293.1630686       293.1534098        293.150544       293.1500215       293.1499833       293.1499954
   0.009930813859       293.2069757        293.226155       293.2578036       299.6436667       482.8955106       293.7624587       293.2046513       293.2019611       293.1921034       293.1664315       293.1703738       293.1648658       293.1544092        293.150779       293.1500547       293.1499832       293.1499939
    0.01018124627       293.2159854       293.2220917        293.253484       300.0307544        491.097049       293.7994702       293.1994825       293.2010543       293.1985371       293.1702568       293.1697459       293.1665257       293.1555899       293.1510878       293.1501025       293.1499855       293.1499921
    0.01043167869       293.2235991       293.2167413       293.2482138         300.43554       499.5232675       293.8394184       293.1937624       293.1981532       293.2031928       293.1752232       293.1692941       293.1679677       293.1569474       293.1514867       293.1501698       293.1499915       293.1499902
     0.0106821111       293.2287759       293.2109849       293.2427584       300.8593532       508.1800118       293.8832628       293.1882927       293.1936902       293.2054792       293.1808072       293.1692808        293.169133       293.1584637       293.1519931       293.1502631       293.1500023       293.1499884
    0.01093254351       293.2306757       293.2057566       293.2379594       301.3037419        517.072427       293.9319176       293.1838931       293.1883171       293.2050415       293.1863112       293.1699109       293.1699951       293.1601054       293.1526236       293.1503904       293.1500196       293.1499869
    0.01118297593       293.2287923       293.2019012       293.2346462       301.7692446       526.2057355       293.9861287        293.181297       293.1828194       293.2018366       293.1909502         293.17128       293.1705663       293.1618228       293.1533929       293.1505615       293.1500455       293.1499863
    0.01143340834       293.2231106       293.2000427       293.2335233       302.2569686       535.5849318       294.0463882       293.1810511           293.178       293.1962186        293.193958        293.173334       293.1708979       293.1635527        293.154312       293.1507876       293.1500827       293.1499874
    0.01168384075       293.2142165       293.2004831       293.2350408       302.7677132       545.2147074        294.113144       293.1834388       293.1745562       293.1888908       293.1947408       293.1758581       293.1710706       293.1652221       293.1553855       293.1510818       293.1501352        293.149991
    0.01193427317       293.2034409       293.2031511       293.2393024       303.3020632       555.0994768       294.1861459       293.1884179       293.1729739       293.1808144       293.1929687       293.1784833       293.1711763       293.1667548       293.1566096       293.1514583       293.1502082       293.1499982
    0.01218470558       293.1923523       293.2076711       293.2460264       303.8603016       565.2427388       294.2649606       293.1956025        293.173461       293.1730818       293.1886574       293.1807321       293.1712952       293.1680795       293.1579698       293.1519319       293.1503077       293.1500102
    0.01243513799       293.1826288        293.213435       293.2546011       304.4429383       575.6490731       294.3491406       293.2043231       293.1759207       293.1667618       293.1822014       293.1820951       293.1714714       293.1691371       293.1594393       293.1525173       293.1504415       293.1500282
    0.01268557041       293.1759417       293.2197193       293.2641847       305.0504792       586.3225101       294.4381787       293.2137441       293.1799745       293.1627447       293.1743694       293.1821251       293.1716924       293.1698861       293.1609787       293.1532276       293.1506184       293.1500541
    0.01293600282       293.1736089       293.2258438       293.2738404       305.6835437       597.2667653       294.5316022        293.223017       293.1851117       293.1616201       293.1662507       293.1805309       293.1718782       293.1703047        293.162535       293.1540727       293.1508486        293.150091
    0.01318643523       293.1764016       293.2313257       293.2826781       306.3429172       608.4852373       294.6290399         293.23141        293.190832        293.163613       293.1590592       293.1772557        293.171887       293.1703899       293.1640444       293.1550572       293.1511435       293.1501429
    0.01343686765        293.184395       293.2359665       293.2899841       307.0295509       619.9805339       294.7302637       293.2384104       293.1967352       293.1685765       293.1539765       293.1725295       293.1715413        293.170153       293.1654356       293.1561786       293.1515154       293.1502145
    0.01368730006       293.1968644        293.239887       293.2953226       307.7445233        631.753354       294.8352109       293.2437888       293.2025582       293.1760715       293.1519509       293.1668698       293.1706584       293.1696139       293.1666348       293.1574243       293.1519767       293.1503116
    0.01393773247       293.2126536       293.2434919       293.2985982       308.4889427       643.7990567       294.9439646       293.2476186       293.2082256       293.1854658       293.1535227       293.1610422       293.1691117       293.1687944       293.1675704       293.1587705       293.1525393       293.1504412
    0.01418816489        293.230128       293.2473701       293.3000648       309.2636644       656.0950612       295.0567068       293.2502366        293.213817       293.1959778       293.1587169       293.1559675       293.1668532        293.167713       293.1681795         293.16018       293.1532132       293.1506113
     0.0144385973       293.2474795       293.2521476        293.300276       310.0677733       668.5151469       295.1734778        293.252167       293.2195162       293.2067361       293.1670012       293.1525831       293.1639762       293.1663841       293.1684122       293.1616022       293.1540051       293.1508313
    0.01468902971        293.263101       293.2582904       293.2999812       310.8732843       678.7937852       295.2915684       293.2539967       293.2255241        293.216887       293.1774242       293.1516679       293.1607226       293.1648236       293.1682368       293.1629738       293.1549164       293.1511115
    0.01493946213       293.2758656       293.2659608       293.2997543       311.5939527       681.4485158       295.3991987       293.2561919       293.2319565       293.2256977       293.1887531       293.1537193       293.1574855       293.1630595       293.1676429        293.164221       293.1559418        293.151463
    0.01518989454       293.2852412        293.274914       293.2997634       312.2517258       683.7677856       295.4860594       293.2589027       293.2387492       293.2326512       293.1997164       293.1588019       293.1547703       293.1611413       293.1666436       293.1652648       293.1570667       293.1518971
    0.01544032695       293.2912574       293.2845095       293.2995864       312.8791301       686.6265993       295.5518211       293.2618268       293.2455952       293.2375156       293.2092134       293.1665364       293.1531199       293.1591512       293.1652776       293.1660264       293.1582661       293.1524243
    0.01569075937       293.2943453       293.2938494       293.2982895       313.5142151       689.7485469       295.6072336       293.2642045       293.2519282        293.240374        293.216513       293.1761056        293.153025       293.1572234       293.1636089       293.1664349       293.1595029       293.1530534
    0.01594119178       293.2951366        293.301858       293.2948184       314.1809801       692.9002367       295.6678976       293.2649916       293.2570559       293.2414935       293.2212411       293.1864401       293.1548413       293.1555358       293.1617269       293.1664352       293.1607278         293.15379
    0.01619162419       293.2942834       293.3074677       293.2885579       314.8859644       695.9877088       295.7462329       293.2631877       293.2602073       293.2412396       293.2234387       293.1963613        293.158702       293.1543115       293.1597439       293.1659945       293.1618807        293.154635
    0.01644205661        293.292326       293.3098232       293.2797403       315.6213636       699.0271278       295.8464429       293.2581753        293.260705       293.2399178       293.2234278       293.2047989       293.1644577        293.153796       293.1577924        293.165109       293.1628934       293.1555824