# Continuity error
# Time            # Local           # Global          # Cumulative      
0.05              5.9594933957e-08	1.0704559653e-09	1.0704559653e-09
0.1               9.0300857752e-08	1.0596390428e-08	1.1666846394e-08
0.15              9.8794652205e-08	2.1533207189e-08	3.3200053582e-08
0.2               2.0050895876e-07	2.8937667953e-08	6.2137721535e-08
0.25              5.0279889103e-07	6.8148509890e-08	1.3028623142e-07
0.3               9.9343981326e-07	1.2548586295e-07	2.5577209437e-07
