# Probe 0 (2.4 2.295 1.5)
#           Probe                 0
#            Time
    1.1999904e-06            101325
  2.639965056e-06            101325
  4.367944597e-06            101325
  6.441505713e-06            101325
   8.92973777e-06            101325
  1.191552707e-05            101325
  1.549838863e-05            101325
  1.979776087e-05            101325
  2.495674128e-05            101325
  3.114713435e-05            101325
  3.857523794e-05            101325
  4.748896225e-05            101325
  5.818543142e-05            101325
  7.102064463e-05            101325
  8.642131685e-05            101325
  0.0001049009832            101325
  0.0001270765827            101325
  0.0001536896689            101325
  0.0001856219625            101325
  0.0002239407148            101325
  0.0002699019884            101325
  0.0003250351347            101325
  0.0003911802278            101325
  0.0004705543394            101325
  0.0005658032734            101325
  0.0006799700095            101325
  0.0008169700928            101325
  0.0009814618316            101325
   0.001179117227            101325
   0.001416111804       101325.0001
   0.001666544217       101325.0009
   0.001916976631        101325.004
   0.002167409044        101325.014
   0.002417841458       101325.0418
   0.002668273871       101325.1098
   0.002918706284       101325.2597
   0.003169138698       101325.5621
   0.003419571111       101326.1264
   0.003670003524       101327.1083
   0.003920435938       101328.7106
   0.004170868351       101331.1739
   0.004421300765        101334.752
   0.004671733178         101339.67
   0.004922165591       101346.0663
   0.005172598005        101353.922
   0.005423030418       101362.9904
   0.005673462831       101372.7431
   0.005923895245       101382.3571
   0.006174327658       101390.7643
   0.006424760072        101396.783
   0.006675192485       101399.3267
   0.006925624898       101397.6563
   0.007176057312       101391.6153
   0.007426489725       101381.8752
   0.007676922139       101369.7194
   0.007927354552       101356.9801
   0.008177786965       101345.7183
   0.008428219379       101337.8382
   0.008678651792        101334.727
   0.008929084205       101337.0348
   0.009179516619       101344.7605
   0.009429949032       101357.2582
   0.009680381446       101373.2647
   0.009930813859       101391.0586
    0.01018124627       101408.6635
    0.01043167869        101424.002
     0.0106821111       101435.0366
    0.01093254351       101439.9997
    0.01118297593       101437.7394
    0.01143340834       101428.1451
    0.01168384075       101412.3386
    0.01193427317         101392.41
    0.01218470558       101371.1794
    0.01243513799       101351.7869
    0.01268557041       101337.2275
    0.01293600282       101329.8519
    0.01318643523       101331.0353
    0.01343686765       101340.8493
    0.01368730006       101357.9718
    0.01393773247       101379.9058
    0.01418816489       101403.5996
     0.0144385973       101426.0669
    0.01468902971       101444.9484
    0.01493946213       101458.8785
    0.01518989454       101467.6172
    0.01544032695       101471.9276
    0.01569075937       101473.1154
    0.01594119178        101472.622
    0.01619162419       101471.5584
    0.01644205661       101470.4442
    0.01669248902       101469.2087
    0.01694292143       101467.3497
    0.01719335385       101464.1598
    0.01744378626       101459.0006
    0.01769421867         101451.52
    0.01794465109       101441.8688
     0.0181950835       101430.8206
    0.01844551591       101419.6822
    0.01869594833       101410.0308
    0.01894638074       101403.3763
    0.01919681315       101400.8378
    0.01944724557       101402.8969
    0.01969767798       101409.2496
    0.01994811039       101418.8966
    0.02019854281       101430.3029
    0.02044897522       101441.7559
    0.02069940763       101451.8937
    0.02094984005       101459.9052
    0.02120027246       101465.6229
    0.02145070487       101469.4792
    0.02170113729       101472.2961
     0.0219515697       101474.9601
    0.02220200211       101478.1308
    0.02245243453       101481.8118
    0.02270286694       101485.3528
    0.02295329935       101487.7256
    0.02320373177       101487.8497
    0.02345416418       101484.9614
    0.02370459659       101478.8819
    0.02395502901       101470.1107
    0.02420546142       101459.7747
    0.02445589384       101449.4289
    0.02470632625       101440.8709
    0.02495675866       101435.7081
    0.02520719108       101434.9748
    0.02545762349       101439.0488
     0.0257080559       101447.5891
    0.02595848832        101459.651
    0.02620892073       101473.8977
    0.02645935314       101488.8013
    0.02670978556       101502.8629
    0.02696021797       101514.7755
    0.02721065038        101523.614
     0.0274610828       101528.8773
    0.02771151521       101530.4454
    0.02796194762        101528.398
    0.02821238004       101522.9525
    0.02846281245       101514.3174
    0.02871324486       101502.6964
    0.02896367728       101488.4142
    0.02921410969       101472.0628
     0.0294645421       101454.5816
    0.02971497452       101437.2093
    0.02996540693       101421.3861
    0.03021583934        101408.596
    0.03046627176       101400.1686
    0.03071670417       101397.2023
    0.03096713658       101400.4896
      0.031217569       101410.3311
    0.03146800141       101426.4411
    0.03171843382       101447.9174
    0.03196886624       101473.2416
    0.03221929865        101500.417
    0.03246973106        101527.193
    0.03272016348       101551.3599
    0.03297059589       101570.9212
     0.0332210283       101584.2444
    0.03347146072       101590.2993
    0.03372189313       101588.8443
    0.03397232554       101580.5185
    0.03422275796       101566.8043
    0.03447319037       101549.7614
    0.03472362278       101531.5432
     0.0349740552       101514.0149
    0.03522448761       101498.6339
    0.03547492002       101486.3609
    0.03572535244       101477.5343
    0.03597578485       101471.8075
    0.03622621726       101468.3508
    0.03647664968       101466.1325
    0.03672708209       101464.2797
     0.0369775145       101462.2952
    0.03722794692       101460.1077
    0.03747837933       101458.0281
    0.03772881174       101456.6462
    0.03797924416       101456.6853
    0.03822967657       101458.8105
    0.03848010898       101463.4651
     0.0387305414       101470.7526
    0.03898097381       101480.3798
    0.03923140622       101491.6924
    0.03948183864       101503.8112
    0.03973227105       101515.8144
    0.03998270346       101526.8548
    0.04023313588       101536.2552
    0.04048356829       101543.5102
     0.0407340007       101548.2135
    0.04098443312       101550.0539
    0.04123486553       101548.8141
    0.04148529795       101544.4136
    0.04173573036       101537.0033
    0.04198616277       101526.9969
    0.04223659519       101515.1484
     0.0424870276       101502.5657
    0.04273746001       101490.5826
    0.04298789243        101480.558
    0.04323832484       101473.6963
    0.04348875725       101470.9123
    0.04373918967       101472.7175
    0.04398962208       101479.1153
    0.04424005449       101489.5615
    0.04449048691       101503.0238
    0.04474091932       101518.1455
    0.04499135173        101533.378
    0.04524178415       101547.1646
    0.04549221656       101558.0922
    0.04574264897       101565.0498
    0.04599308139       101567.3629
     0.0462435138       101564.9096
    0.04649394621       101558.0814
    0.04674437863       101547.7239
    0.04699481104       101535.0282
    0.04724524345       101521.2549
    0.04749567587       101507.6513
    0.04774610828       101495.3469
    0.04799654069       101485.2345
    0.04824697311       101477.8938
    0.04849740552       101473.5789
    0.04874783793        101472.265
    0.04899827035       101473.7852
    0.04924870276       101477.8068
    0.04949913517       101483.9729
    0.04974956759       101492.0098
             0.05       101501.6857
          0.05025       101512.7325
           0.0505       101524.8982
          0.05075       101537.7922
            0.051       101550.8342
          0.05125       101563.2466
           0.0515       101574.1398
          0.05175       101582.6356
            0.052       101587.9694
          0.05225       101589.5578
           0.0525       101587.0579
          0.05275       101580.4041
            0.053       101569.8509
          0.05325       101555.9969
           0.0535       101539.7445
          0.05375       101522.2715
            0.054       101504.9303
          0.05425       101489.1288
           0.0545       101476.2076
          0.05475       101467.3107
            0.055       101463.2503
          0.05525       101464.4541
           0.0555       101470.8645
          0.05575       101481.9953
            0.056       101497.0476
          0.05625       101514.9865
           0.0565       101534.5818
          0.05675       101554.4589
            0.057       101573.1857
          0.05725       101589.4395
           0.0575        101602.175
          0.05775       101610.7194
            0.058       101614.7955
          0.05825       101614.5023
           0.0585       101610.3007
          0.05875       101602.9738
            0.059       101593.5167
          0.05925       101583.0227
           0.0595       101572.5222
          0.05975       101562.8152
             0.06       101554.3682
          0.06025       101547.3521
           0.0605       101541.6922
          0.06075       101537.1624
            0.061       101533.5136
          0.06125       101530.5946
           0.0615       101528.4293
          0.06175       101527.2267
            0.062       101527.3281
          0.06225       101529.1017
           0.0625       101532.7954
          0.06275        101538.408
            0.063       101545.6318
          0.06325       101553.8903
           0.0635       101562.4373
          0.06375        101570.493
            0.064       101577.3889
          0.06425       101582.6973
           0.0645       101586.3058
          0.06475       101588.4034
            0.065        101589.373
          0.06525       101589.6052
           0.0655       101589.3794
          0.06575       101588.7984
            0.066       101587.8393
          0.06625       101586.4747
           0.0665       101584.7914
          0.06675       101583.0679
            0.067       101581.7887
          0.06725        101581.588
           0.0675       101583.1176
          0.06775       101586.8854
            0.068       101593.1024
          0.06825        101601.579
           0.0685       101611.7085
          0.06875        101622.553
            0.069       101633.0016
          0.06925        101641.948
           0.0695       101648.4533
          0.06975       101651.8739
             0.07       101651.9469
          0.07025       101648.8006
           0.0705        101642.918
          0.07075       101635.0341
            0.071       101626.0196
          0.07125       101616.7742
           0.0715       101608.1447
          0.07175       101600.8619
            0.072       101595.4929
          0.07225       101592.4206
           0.0725       101591.8564
          0.07275       101593.8198
            0.073       101598.1572
          0.07325        101604.543
           0.0735       101612.5199
          0.07375       101621.5401
            0.074       101631.0031
          0.07425       101640.3264
           0.0745       101649.0377
          0.07475       101656.8492
            0.075       101663.6859
          0.07525       101669.6583
           0.0755       101674.9759
          0.07575       101679.8274
            0.076       101684.2781
          0.07625       101688.2254
           0.0765       101691.4072
          0.07675       101693.4535
            0.077       101693.9759
          0.07725       101692.6747
           0.0775       101689.4339
          0.07775       101684.4038
            0.078       101678.0204
          0.07825       101670.9816
           0.0785       101664.1756
          0.07875        101658.566
            0.079       101655.0516
          0.07925       101654.3365
           0.0795       101656.8234
          0.07975       101662.5587
             0.08       101671.2397
          0.08025       101682.2746
           0.0805       101694.8819
          0.08075        101708.213
            0.081       101721.4628
    0.08124675325       101733.7951
    0.08149350649       101744.8753
    0.08173701299       101754.2393
    0.08197731545       101761.7477
    0.08221761791       101767.4337
    0.08245471634       101771.2366
    0.08269181476        101773.289
    0.08292570916       101773.7083
    0.08315960355       101772.7149
    0.08339029392       101770.5985
    0.08362098428       101767.6488
    0.08385167464       101764.1749
    0.08407911584        101760.518
    0.08430655705       101756.8769
    0.08453399825       101753.4596
     0.0847581432        101750.479
    0.08498228815        101748.026
    0.08520643311        101746.238
    0.08543057806       101745.2683
    0.08565132688       101745.2852
    0.08587207569       101746.4419
    0.08609282451       101748.8809
    0.08631357333       101752.6695
    0.08653432215       101757.7665
     0.0867515105       101763.8949
    0.08696869885       101770.8342
     0.0871858872       101778.1748
    0.08739945575       101785.3095
     0.0876130243       101791.8638
    0.08782659284       101797.3897
    0.08804016139       101801.5608
    0.08824998312       101804.1982
    0.08845980485       101805.4502
    0.08866962658       101805.5448
    0.08887563337         101804.82
    0.08908164016       101803.6195
    0.08928764695       101802.2585
    0.08949365374       101800.9904
    0.08969569886       101800.0202
    0.08989774398       101799.4663
     0.0900997891       101799.4704
    0.09030183422       101800.2089
    0.09049975597       101801.8693
    0.09069767772       101804.7352
    0.09089559947       101809.1103
    0.09109352122       101815.2701
    0.09129144297       101823.3907
    0.09148936472       101833.4772
    0.09168278825       101845.0272
    0.09187621178       101857.8168
    0.09206963531       101871.2195
    0.09226305884       101884.4826
    0.09245648237       101896.8105
     0.0926499059       101907.4583
    0.09283836985       101915.6476
     0.0930268338       101921.3133
    0.09321529775       101924.3259
     0.0934037617       101924.7888
    0.09359222565       101923.0088
    0.09378068961       101919.4501
     0.0939636105       101914.8223
    0.09414653139       101909.5757
    0.09432945229       101904.2015
    0.09451237318       101899.1042
    0.09469529408       101894.5761
    0.09487821497       101890.7919
    0.09506113586       101887.8225
    0.09523752387       101885.7241
    0.09541391187       101884.3228
    0.09559029988       101883.5421
    0.09576668788       101883.3014
    0.09594307589       101883.5292
    0.09611946389       101884.1751
     0.0962958519       101885.2173
     0.0964722399        101886.666
    0.09664862791        101888.562
    0.09681619651        101890.832
    0.09698376512       101893.6099
    0.09715133372       101896.9293
    0.09731890233        101900.793
    0.09748647093       101905.1657
    0.09765403953       101909.9725
    0.09782160814       101915.1034
    0.09798917674       101920.4246
    0.09815674535       101925.8046
    0.09832431395       101931.1337
    0.09849188256        101936.337
    0.09865945116        101941.382
    0.09882701977       101946.2724
    0.09899458837       101951.0392
    0.09916215698       101955.7278
    0.09932972558       101960.3775
    0.09949729419       101964.9989
    0.09966486279       101969.5563
     0.0998324314       101973.9556
              0.1       101978.0455
     0.1001612903       101981.5066
     0.1003220604       101984.2929
     0.1004823118       101986.2288
     0.1006420463       101987.1918
     0.1008012655        101987.142
     0.1009599711        101986.143
     0.1011181647       101984.3692
      0.101275848       101982.0984
     0.1014330227       101979.6859
     0.1015896904       101977.5272
     0.1017458527       101976.0009
     0.1019015112       101975.4106
     0.1020566676       101975.9547
     0.1022113235       101977.6955
     0.1023654806       101980.5694
     0.1025191403       101984.3891
     0.1026723044       101988.8748
     0.1028249744       101993.6949
     0.1029771519       101998.5124
     0.1031288385        102003.033
     0.1032800358       102007.0529
     0.1034307453       102010.4803
     0.1035809687       102013.3506
     0.1037307075       102015.8184
     0.1038799633       102018.1241
     0.1040287376       102020.5401
      0.104177032       102023.3147
      0.104324848       102026.6259
     0.1044721872       102030.5548
     0.1046185789       102035.0591
     0.1047644999       102040.0228
     0.1049099517       102045.2378
     0.1050549357       102050.4495
     0.1051994536       102055.3976
     0.1053435068       102059.8552
     0.1054870968       102063.6594
     0.1056302252       102066.7257
     0.1057728932       102069.0508
     0.1059151026       102070.7039
     0.1060568547       102071.8047
      0.106198151       102072.4956
     0.1063389929       102072.9103
      0.106479382       102073.1511
     0.1066193197       102073.2693
     0.1067588074       102073.2629
     0.1068978466       102073.0861
     0.1070368858       102072.6689
     0.1071754765       102071.9446
     0.1073136201       102070.8714
     0.1074513181       102069.4548
     0.1075885719       102067.7725
     0.1077258257       102065.9674
     0.1078626354       102064.2536
     0.1079990022       102062.8818
     0.1081349278       102062.1241
     0.1082704135       102062.2407
     0.1084058991       102063.4489
     0.1085409449       102065.8837
     0.1086755523        102069.581
     0.1088097225       102074.4426
     0.1089434572       102080.2579
     0.1090767577       102086.7382
     0.1092096253       102093.5547
      0.109342493       102100.3908
     0.1094749279       102106.9089
     0.1096069314       102112.8457
     0.1097385049       102118.0058
     0.1098700784       102122.2751
     0.1100012219       102125.5712
     0.1101323655       102127.8927
      0.110263079       102129.2706
      0.110393364       102129.7953
      0.110523649        102129.593
     0.1106535054       102128.8107
     0.1107829347       102127.6037
     0.1109119382       102126.1202
     0.1110405173       102124.4851
     0.1111686735       102122.7871
     0.1112968297       102121.0684
      0.111424563       102119.3439
     0.1115518746        102117.598
     0.1116791863       102115.7994
     0.1118060764       102113.9386
     0.1119329665       102112.0191
     0.1120594351       102110.0925
     0.1121854835       102108.2421
     0.1123115319       102106.5805
     0.1124371601       102105.2582
     0.1125623695       102104.4297
     0.1126871616       102104.2403
     0.1128119537       102104.8081
     0.1129363285       102106.1979
     0.1130602873       102108.4078
      0.113184246       102111.3852
     0.1133077888        102115.012
     0.1134313316       102119.1609
     0.1135544584       102123.6671
     0.1136771707       102128.3878
      0.113799883       102133.2303
     0.1139221807       102138.1245
     0.1140444784       102143.0997
     0.1141663615       102148.2158
     0.1142878314       102153.5922
     0.1144093014        102159.385
     0.1145303582       102165.7003
      0.114651415       102172.6449
     0.1147720586        102180.211
     0.1148927023       102188.3463
     0.1150129327       102196.8398
     0.1151331632       102205.4409
     0.1152529805       102213.7773
     0.1153723861       102221.4915
     0.1154917916       102228.2808
     0.1156107855       102233.8634
      0.115729369       102238.0882
     0.1158479525       102240.9261
     0.1159661256       102242.4327
     0.1160838899       102242.7748
     0.1162012467       102242.1906
     0.1163186035       102240.9395
     0.1164355528       102239.3156
      0.116552096       102237.5797
     0.1166682345       102235.9086
     0.1167843731       102234.3685
      0.116900107       102232.9357
     0.1170154376       102231.4979
     0.1171307683       102229.8842
     0.1172456957       102227.9103
     0.1173602212       102225.3967
     0.1174747467       102222.2066
     0.1175888704        102218.311
     0.1177025937       102213.7855
      0.117816317       102208.7864
     0.1179296398       102203.5871
     0.1180425636        102198.498
     0.1181554874       102193.8261
     0.1182680122       102189.8825
     0.1183805369       102186.8801
     0.1184930617       102184.9564
     0.1186051861       102184.1444
     0.1187173104       102184.3669
     0.1188290343       102185.4653
     0.1189407582       102187.2368
     0.1190520816       102189.4521
     0.1191634051       102191.9152
     0.1192743281       102194.4679
     0.1193852511       102197.0454
     0.1194957736       102199.6498
     0.1196062962       102202.3806
     0.1197164183        102205.375
     0.1198265404       102208.8163
     0.1199362621       102212.8505
     0.1200455848       102217.5836
     0.1201549075       102223.0709
     0.1202638312       102229.2527
     0.1203727549       102236.0436
     0.1204812796       102243.2603
     0.1205898043        102250.735
       0.12069793       102258.2268
     0.1208060557       102265.5456
     0.1209137824       102272.4645
     0.1210211117       102278.8222
     0.1211284409       102284.5265
     0.1212353726       102289.4926
     0.1213419082       102293.7065
     0.1214484439       102297.1985
     0.1215545835       102299.9887
     0.1216603285        102302.118
     0.1217660736       102303.6232
     0.1218714241       102304.5136
     0.1219767745       102304.7964
     0.1220817304       102304.4735
     0.1221866863       102303.5563
     0.1222912477       102302.0776
      0.122395809       102300.0804
     0.1225003703       102297.6284
     0.1226049317       102294.7996
     0.1227090954       102291.6919
     0.1228132592       102288.3781
     0.1229174229       102284.9317
     0.1230211876       102281.4252
     0.1231249523        102277.887
     0.1232287169       102274.3421
     0.1233320809       102270.8164
      0.123435445        102267.302
      0.123538809       102263.8073
     0.1236417708       102260.3644
     0.1237447327        102256.995
     0.1238476945       102253.7546
     0.1239502526       102250.7304
     0.1240528106       102248.0024
     0.1241553687        102245.677
     0.1242575214       102243.8757
     0.1243596741       102242.6854
     0.1244618268       102242.1964
     0.1245639794       102242.4816
     0.1246657235       102243.5718
     0.1247674676       102245.4794
     0.1248692117       102248.1837
     0.1249709558       102251.6346
     0.1250726999       102255.7657
     0.1251740303       102260.4838
     0.1252753608       102265.7283
     0.1253766913       102271.4178
     0.1254780218        102277.464
     0.1255789353       102283.7461
     0.1256798488       102290.1881
     0.1257807623       102296.6834
      0.125881257       102303.0949
     0.1259817518       102309.3399
     0.1260818278       102315.2913
     0.1261819039       102320.8874
     0.1262819799       102326.0535
     0.1263816355         102330.73
      0.126481291         102334.92
     0.1265805261       102338.6127
     0.1266797611       102341.8533
     0.1267785757       102344.6792
     0.1268773903       102347.1729
     0.1269762048       102349.4179
     0.1270745971       102351.4986
     0.1271729894       102353.5187
     0.1272709594       102355.5562
     0.1273689294       102357.6896
     0.1274668994       102359.9636
     0.1275644453       102362.3785
     0.1276619912       102364.9146
     0.1277595371       102367.5004
      0.127856657       102370.0156
     0.1279537769       102372.3335
     0.1280508969       102374.2993
      0.128147589       102375.7509
      0.128244281       102376.5535
     0.1283409731       102376.5883
     0.1284372355       102375.7804
     0.1285334978       102374.1014
     0.1286293304       102371.5892
      0.128725163       102368.3199
     0.1288209956       102364.4278
     0.1289163965       102360.1112
     0.1290117974       102355.5604
     0.1291067667       102351.0174
     0.1292017359       102346.6806
     0.1292967052       102342.7541
     0.1293912408       102339.4254
     0.1294857764       102336.8111
     0.1295803119       102334.9946
     0.1296744119       102334.0067
     0.1297685118       102333.8141
     0.1298626118       102334.3505
     0.1299567117       102335.5191
      0.130050372        102337.196
     0.1301440322       102339.2661
     0.1302376924       102341.6157
     0.1303313526       102344.1458
      0.130424569        102346.763
     0.1305177853        102349.415
     0.1306110016       102352.0472
      0.130704218       102354.6079
     0.1307969862       102357.0329
     0.1308897543       102359.2811
     0.1309825225       102361.3011
     0.1310752907         102363.05
     0.1311680589       102364.5005
     0.1312603723        102365.644
     0.1313526858       102366.5134
     0.1314449992       102367.1645
     0.1315373126       102367.6807
     0.1316296261        102368.166
     0.1317219395       102368.7357
     0.1318137891       102369.5033
     0.1319056386        102370.584
     0.1319974882       102372.0821
     0.1320893377       102374.0892
     0.1321811873       102376.6808
     0.1322725658       102379.8944
     0.1323639443       102383.7721
     0.1324553228       102388.3132
     0.1325462279       102393.4506
      0.132637133       102399.1245
      0.132728038       102405.2077
     0.1328184672       102411.4956
     0.1329088963       102417.8131
     0.1329993254       102423.9264
     0.1330892761       102429.5599
     0.1331792267        102434.504
     0.1332691774       102438.5349
      0.133359128       102441.4645
     0.1334485951       102443.1506
     0.1335380621       102443.5414
     0.1336275292       102442.6153
     0.1337169962        102440.426
     0.1338059744       102437.1086
     0.1338949526       102432.8351
     0.1339839307       102427.8353
     0.1340729089       102422.3646
     0.1341613927       102416.7156
     0.1342498766       102411.1057
     0.1343383604       102405.7559
     0.1344268443       102400.8464
     0.1345153281       102396.5068
     0.1346038119       102392.8129
     0.1346917902       102389.8071
     0.1347797684       102387.4551
     0.1348677466       102385.7188
     0.1349557248       102384.5425
      0.135043703       102383.8593
     0.1351316812       102383.5946
     0.1352191419        102383.667
     0.1353066026       102383.9908
     0.1353940633       102384.4832
      0.135481524       102385.0688
     0.1355689847        102385.687
     0.1356564454       102386.2997
     0.1357439061          102386.9
     0.1358308335       102387.4973
     0.1359177609       102388.1388
     0.1360046883       102388.8969
     0.1360916157       102389.8555
     0.1361785431       102391.1111
     0.1362654705        102392.748
     0.1363518512       102394.8398
     0.1364382319       102397.4563
     0.1365246126       102400.6254
     0.1366109933       102404.3399
      0.136697374       102408.5567
     0.1367837547       102413.1958
     0.1368701354       102418.1416
     0.1369559515        102423.214
     0.1370417676       102428.2809
     0.1371275837       102433.1744
     0.1372133998       102437.7399
     0.1372992159       102441.8531
      0.137385032       102445.4326
     0.1374708481       102448.4486
     0.1375566642       102450.9244
     0.1376418926       102452.9203
     0.1377271209       102454.5656
     0.1378123492       102455.9984
     0.1378975775       102457.3689
     0.1379828059        102458.825
     0.1380680342       102460.4985
     0.1381532625       102462.4942
     0.1382384908        102464.881
      0.138323106       102467.6648
     0.1384077212       102470.8444
     0.1384923364       102474.3594
     0.1385769515       102478.1096
     0.1386615667       102481.9625
     0.1387461819       102485.7643
     0.1388307971       102489.3531
     0.1389154122       102492.5739
     0.1389993864       102495.2764
     0.1390833605       102497.3905
     0.1391673347       102498.8526
     0.1392513088       102499.6455
      0.139335283       102499.7993
     0.1394192571       102499.3856
     0.1395032313       102498.5048
     0.1395872054       102497.2727
     0.1396711796       102495.8078
     0.1397551537        102494.219
     0.1398384452        102492.609
     0.1399217366       102491.0281
      0.140005028       102489.5122
     0.1400883195       102488.0729
     0.1401716109       102486.7067
     0.1402549023       102485.3933
     0.1403381938       102484.1087
     0.1404214852       102482.8303
     0.1405040586       102481.5506
      0.140586632       102480.2468
     0.1406692054       102478.9147
     0.1407517788       102477.5582
     0.1408343522       102476.1872
     0.1409169256        102474.815
      0.140999499       102473.4545
     0.1410820724        102472.115
     0.1411638883       102470.8146
     0.1412457041       102469.5462
       0.14132752       102468.3192
     0.1414093358        102467.152
     0.1414911517       102466.0748
     0.1415729675       102465.1296
     0.1416547834       102464.3687
     0.1417358049       102463.8549
     0.1418168264       102463.6408