# Probe 0 (6 0.005 0.305)
# Probe 1 (6.3 0.005 0.305)
# Probe 2 (6.8 0.005 0.305)
# Probe 3 (8.3 0.005 0.305)
#           Probe                 0                 1                 2                 3
#            Time
    1.1999904e-06            101325            101325            101325            101325
  2.639965056e-06            101325            101325            101325            101325
  4.367944597e-06            101325            101325            101325            101325
  6.441505713e-06            101325            101325            101325            101325
   8.92973777e-06            101325            101325            101325            101325
  1.191552707e-05            101325            101325            101325            101325
  1.549838863e-05            101325            101325            101325            101325
  1.979776087e-05            101325            101325            101325            101325
  2.495674128e-05            101325            101325            101325            101325
  3.114713435e-05            101325            101325            101325            101325
  3.857523794e-05            101325            101325            101325            101325
  4.748896225e-05            101325            101325            101325            101325
  5.818543142e-05            101325            101325            101325            101325
  7.102064463e-05            101325            101325            101325            101325
  8.642131685e-05            101325            101325            101325            101325
  0.0001049009832            101325            101325            101325            101325
  0.0001270765827            101325            101325            101325            101325
  0.0001536896689            101325            101325            101325            101325
  0.0001856219625            101325            101325            101325            101325
  0.0002239407148            101325            101325            101325            101325
  0.0002699019884            101325            101325            101325            101325
  0.0003250351347            101325            101325            101325            101325
  0.0003911802278            101325            101325            101325            101325
  0.0004705543394            101325            101325            101325            101325
  0.0005658032734            101325            101325            101325            101325
  0.0006799700095            101325            101325            101325            101325
  0.0008169700928            101325            101325            101325            101325
  0.0009814618316            101325            101325            101325            101325
   0.001179117227            101325            101325            101325            101325
   0.001416111804            101325            101325            101325            101325
   0.001666544217            101325            101325            101325            101325
   0.001916976631       101324.9999            101325            101325            101325
   0.002167409044       101324.9996            101325            101325            101325
   0.002417841458        101324.999       101324.9999            101325            101325
   0.002668273871       101324.9976       101324.9998            101325            101325
   0.002918706284        101324.995       101324.9995            101325            101325
   0.003169138698       101324.9905       101324.9989            101325            101325
   0.003419571111        101324.984       101324.9977            101325            101325
   0.003670003524       101324.9753       101324.9956       101324.9999            101325
   0.003920435938       101324.9652       101324.9922       101324.9998            101325
   0.004170868351       101324.9548       101324.9872       101324.9995            101325
   0.004421300765       101324.9457       101324.9804       101324.9989            101325
   0.004671733178       101324.9392       101324.9721        101324.998            101325
   0.004922165591       101324.9361        101324.963       101324.9965            101325
   0.005172598005       101324.9362       101324.9541       101324.9941            101325
   0.005423030418       101324.9387       101324.9465       101324.9906            101325
   0.005673462831       101324.9432       101324.9413       101324.9859            101325
   0.005923895245       101324.9501       101324.9392         101324.98            101325
   0.006174327658       101324.9617       101324.9405       101324.9731            101325
   0.006424760072       101324.9828       101324.9453       101324.9657            101325
   0.006675192485       101325.0209       101324.9541       101324.9585            101325
   0.006925624898       101325.0849       101324.9686       101324.9525            101325
   0.007176057312       101325.1868       101324.9924       101324.9486       101324.9999
   0.007426489725       101325.3468       101325.0317       101324.9477       101324.9998
   0.007676922139       101325.5951       101325.0945       101324.9509       101324.9997
   0.007927354552       101325.9737       101325.1927       101324.9592       101324.9995
   0.008177786965       101326.5374       101325.3441       101324.9744       101324.9992
   0.008428219379       101327.3519       101325.5743       101324.9993       101324.9988
   0.008678651792       101328.4904       101325.9186       101325.0383       101324.9981
   0.008929084205       101330.0263       101326.4226       101325.0974        101324.997
   0.009179516619       101332.0228       101327.1404       101325.1859       101324.9956
   0.009429949032       101334.5212       101328.1319       101325.3178       101324.9938
   0.009680381446        101337.527       101329.4572        101325.513       101324.9914
   0.009930813859       101340.9991       101331.1691       101325.7982       101324.9885
    0.01018124627       101344.8416       101333.3047       101326.2067       101324.9852
    0.01043167869        101348.888       101335.8771       101326.7778       101324.9815
     0.0106821111       101352.8811       101338.8625       101327.5545       101324.9779
    0.01093254351       101356.5003        101342.187       101328.5812       101324.9748
    0.01118297593       101359.3941       101345.7085       101329.8992       101324.9728
    0.01143340834       101361.1958       101349.2223       101331.5421       101324.9731
    0.01168384075       101361.5627       101352.4683       101333.5277       101324.9768
    0.01193427317       101360.2525       101355.1649       101335.8462       101324.9858
    0.01218470558       101357.2135       101356.9983       101338.4527       101325.0022
    0.01243513799       101352.6398       101357.6653        101341.253       101325.0285
    0.01268557041       101346.9737       101356.9428       101344.1089       101325.0673
    0.01293600282       101340.8606       101354.7483       101346.8463       101325.1228
    0.01318643523       101335.0586       101351.1808       101349.2558        101325.201
    0.01343686765       101330.2742       101346.5366       101351.0994       101325.3102
    0.01368730006       101327.0226       101341.2895       101352.1427       101325.4617
    0.01393773247       101325.5663       101336.0335       101352.1911       101325.6697
    0.01418816489       101325.9246       101331.3994        101351.129        101325.951
     0.0144385973       101327.9659       101327.9513       101348.9542       101326.3244
    0.01468902971       101331.5225       101326.0918       101345.7999       101326.8102
    0.01493946213        101336.436       101326.0093       101341.9379       101327.4288
    0.01518989454       101342.5304       101327.6992       101337.7622       101328.1989
    0.01544032695       101349.5609        101331.015       101333.7517       101329.1345
    0.01569075937       101357.1704       101335.7086       101330.4111       101330.2449
    0.01594119178       101364.8549       101341.4563       101328.1882       101331.5257
    0.01619162419       101371.9789       101347.8763       101327.3957       101332.9636
    0.01644205661       101377.6522       101354.5458        101328.155       101334.5243
    0.01669248902       101380.9612       101360.9817       101330.4009       101336.1581
    0.01694292143        101381.184       101366.5623       101333.9209       101337.7958
    0.01719335385       101377.9969       101370.6264       101338.3786       101339.3474
    0.01744378626       101371.6729       101372.5153       101343.3319       101340.7084
    0.01769421867       101363.1305       101371.7104       101348.3075       101341.7643
    0.01794465109       101353.7619       101368.0563       101352.7775       101342.4088
     0.0181950835       101345.1013       101361.9077       101356.2402       101342.5534
    0.01844551591       101338.4794       101354.1165       101358.2641       101342.1481
    0.01869594833       101334.8083        101345.888       101358.5448       101341.1924
    0.01894638074       101334.5503        101338.574       101356.9745        101339.742
    0.01919681315       101337.7922       101333.4497       101353.7002       101337.8978
    0.01944724557       101344.4046       101331.4939       101349.1465       101335.8124
    0.01969767798       101354.1279       101333.2571       101343.9927       101333.6893
    0.01994811039       101366.4902       101338.7347       101339.1075       101331.7505
    0.02019854281       101380.6131       101347.4083       101335.4332       101330.2035
    0.02044897522       101395.0422       101358.3973       101333.8452       101329.2142
    0.02069940763       101407.7425       101370.6337       101334.9583       101328.8703
    0.02094984005       101416.3442        101382.964       101338.9472        101329.184
    0.02120027246       101418.6972       101394.1549       101345.5308       101330.0814
    0.02145070487       101413.2995       101402.9139       101354.0078       101331.4284
    0.02170113729       101400.2524       101407.7185       101363.3671       101333.0467
     0.0219515697       101381.4708       101407.2539       101372.4793       101334.7374
    0.02220200211       101360.3552       101400.7371       101380.3098        101336.311
    0.02245243453       101340.9874       101388.2688       101386.0728       101337.6155
    0.02270286694       101327.0181       101371.1995       101389.0807       101338.5593
    0.02295329935       101320.6406       101352.1401       101388.8561       101339.1264
    0.02320373177       101322.0918       101334.4265        101385.131       101339.3821
    0.02345416418       101329.8485       101321.2338       101377.9276       101339.4525
    0.02370459659        101341.322       101314.7337       101367.6956       101339.5274
    0.02395502901        101353.706       101315.6629       101355.4077       101339.8329
    0.02420546142         101364.61       101323.2657       101342.5124       101340.5566
    0.02445589384       101372.4971        101335.412       101330.7241       101341.7883
    0.02470632625       101376.8544        101349.192       101321.7895       101343.5195
    0.02495675866       101378.0455       101361.7722       101317.1694        101345.647
    0.02520719108       101376.8818       101371.0992       101317.5662       101347.9828
    0.02545762349       101374.3675       101376.2768       101322.7418       101350.2721
     0.0257080559       101371.4859       101377.5091       101331.5525        101352.223
    0.02595848832       101369.1156       101375.7507       101342.2155       101353.5144
    0.02620892073       101367.9795       101372.3053       101352.7902         101353.93
    0.02645935314       101368.5874       101368.4817       101361.6441       101353.4025
    0.02670978556       101371.1569       101365.3463       101367.7229        101352.019
    0.02696021797       101375.5394       101363.5974       101370.7259       101349.9435
    0.02721065038        101381.256       101363.5514       101370.9592       101347.3765
     0.0274610828       101387.5063       101365.2213       101369.1907       101344.5466
    0.02771151521       101393.3058       101368.3708       101366.3409       101341.6986
    0.02796194762       101397.6776       101372.5706        101363.261       101339.0683
    0.02821238004       101399.8477       101377.2414       101360.6205       101336.8708
    0.02846281245       101399.4119       101381.6908       101358.8719       101335.2448
    0.02871324486       101396.4336       101385.2081       101358.2502       101334.1965
    0.02896367728       101391.4376       101387.2289       101358.8326       101333.6886
    0.02921410969       101385.2852       101387.4572       101360.5543       101333.6906
     0.0294645421       101378.9454       101385.8932       101363.1992       101334.2093
    0.02971497452       101373.2418       101382.8059       101366.3907       101335.2847
    0.02996540693       101368.7236       101378.6626       101369.6128       101336.9501
    0.03021583934       101365.5337       101374.0253       101372.3011       101339.2116
    0.03046627176       101363.4846       101369.4336       101373.9676       101341.9604
    0.03071670417        101362.227       101365.3013       101374.2798       101344.9637
    0.03096713658       101361.4357       101361.8641       101373.1118        101347.896
      0.031217569       101360.9407        101359.193       101370.5679       101350.4062
    0.03146800141       101360.7754       101357.2647       101366.9643        101352.174
    0.03171843382       101361.1423       101356.0326       101362.7621        101352.964
    0.03196886624       101362.3119       101355.4863        101358.476       101352.6749
    0.03221929865       101364.4879       101355.6701       101354.5863       101351.3654
    0.03246973106       101367.6847       101356.6556       101351.4767        101349.265
    0.03272016348       101371.6622       101358.4798       101349.4204       101346.7477
    0.03297059589       101375.9479       101361.0775       101348.5407       101344.2922
     0.0332210283       101379.9402       101364.2377       101348.8127       101342.3706
    0.03347146072       101383.0461       101367.6058       101350.0844       101341.3563
    0.03372189313       101384.8769        101370.737       101352.1058       101341.4626
    0.03397232554       101385.2689       101373.1857       101354.5613       101342.7082
    0.03422275796       101384.2948       101374.5958       101357.1071       101344.9319
    0.03447319037       101382.2244       101374.8491       101359.4078       101347.8072
    0.03472362278       101379.4848       101373.9945       101361.1816       101350.8446
     0.0349740552       101376.6191       101372.2074       101362.2295        101353.519
    0.03522448761       101374.2277       101369.8081       101362.4461       101355.3724
    0.03547492002       101372.8752       101367.2791       101361.8162       101356.0986
    0.03572535244       101372.9613       101365.1924       101360.4419       101355.6054
    0.03597578485        101374.669       101364.0722       101358.5755       101354.0207
    0.03622621726       101377.8849       101364.2633       101356.6092       101351.6533
    0.03647664968        101382.243       101365.8866       101355.0057       101348.8903
    0.03672708209       101387.1908       101369.0226       101354.1916       101346.1146
     0.0369775145       101392.0996       101373.4797       101354.4606       101343.6493
    0.03722794692        101396.363        101378.817       101355.9499       101341.7137
    0.03747837933       101399.4871       101384.4441       101358.6838       101340.3964
    0.03772881174       101401.1737       101389.7144        101362.497       101339.6559
    0.03797924416        101401.357       101394.0158       101367.0672       101339.3601
    0.03822967657       101400.1799       101396.8648       101371.9655       101339.3234
    0.03848010898       101397.9294       101397.9868       101376.7094       101339.3709
     0.0387305414       101394.9555       101397.3529       101380.8254       101339.3903
    0.03898097381       101391.6223       101395.1532       101383.9186       101339.3545
    0.03923140622       101388.2481       101391.7188       101385.7233       101339.3174
    0.03948183864       101385.0454       101387.4753       101386.1091       101339.3938
    0.03973227105       101382.0968       101382.8183        101385.142       101339.7333
    0.03998270346       101379.3506       101378.0692       101382.9941       101340.4761
    0.04023313588       101376.6402         101373.48       101379.9181       101341.7237
    0.04048356829       101373.7347       101369.2458       101376.2204       101343.4783
     0.0407340007        101370.423       101365.4995        101372.214       101345.7049
    0.04098443312       101366.6204       101362.2931       101368.1696       101348.3066
    0.04123486553       101362.4674       101359.5889       101364.2845       101351.1061
    0.04148529795       101358.3716       101357.2844       101360.6794       101353.8665
    0.04173573036       101354.9513       101355.2722       101357.4193       101356.3458
    0.04198616277       101352.9173       101353.5138       101354.5458       101358.3433
    0.04223659519        101352.872       101352.0937       101352.1026       101359.7273
     0.0424870276       101355.1167       101351.2564       101350.1391       101360.4318
    0.04273746001       101359.5934        101351.339       101348.6929       101360.4908
    0.04298789243       101365.9505       101352.6173       101347.7678       101359.9899
    0.04323832484       101373.6387        101355.246       101347.3415       101359.0705
    0.04348875725       101381.9726       101359.2338       101347.3587       101357.8832
    0.04373918967       101390.1579       101364.4243       101347.7508       101356.5554
    0.04398962208       101397.3339       101370.4881       101348.4929       101355.1783
    0.04424005449       101402.6736       101376.9344        101349.639       101353.8135
    0.04449048691       101405.5374       101383.1446       101351.3059       101352.4833
    0.04474091932       101405.6733       101388.4226       101353.6161       101351.1573
    0.04499135173       101403.3204       101392.1683       101356.6338       101349.8139
    0.04524178415       101399.1065       101393.8911       101360.3215       101348.4152
    0.04549221656       101393.9033       101393.3586       101364.4854       101346.9247
    0.04574264897       101388.6245       101390.7245       101368.7779       101345.3304
    0.04599308139       101384.0305       101386.5515       101372.7565       101343.6685
     0.0462435138       101380.6059       101381.7116       101375.9608       101342.0271
    0.04649394621       101378.5341       101377.1796       101378.0101       101340.5312
    0.04674437863        101377.767       101373.7834       101378.6981       101339.2977
    0.04699481104       101378.1478        101371.993       101378.0595       101338.4164
    0.04724524345       101379.4118        101371.846       101376.3777       101337.9392
    0.04749567587       101381.2148       101373.0264       101374.1228       101337.8725
    0.04774610828       101383.2012       101374.9388       101371.8323       101338.1795
    0.04799654069       101385.0813       101376.9484       101369.9682       101338.7929
    0.04824697311       101386.7011       101378.6023       101368.7943       101339.6343
    0.04849740552       101388.0864       101379.7294       101368.3214       101340.6355
    0.04874783793       101389.4344        101380.408       101368.3347       101341.7561
    0.04899827035        101391.039       101380.8845       101368.4814       101342.9916
    0.04924870276       101393.1675       101381.4435       101368.4308       101344.3632
    0.04949913517       101395.9331       101382.3174       101368.0158       101345.8866
    0.04974956759       101399.2298       101383.6456       101367.2943       101347.5733
             0.05       101402.7614        101385.467       101366.5174       101349.3992
          0.05025       101406.1318       101387.6752       101366.0339       101351.2846
           0.0505       101408.9575       101390.0888       101366.1776       101353.1095
          0.05075       101410.8818       101392.5083       101367.1644       101354.7256
            0.051       101411.5405       101394.7454       101369.0049       101355.9916
          0.05125       101410.4944       101396.6075       101371.5194        101356.804
           0.0515        101407.215       101397.8588       101374.4244       101357.1188
          0.05175       101401.1913       101398.1787       101377.4232       101356.9576
            0.052       101392.2298       101397.1403         101380.28       101356.3963
          0.05225       101380.6965       101394.2565       101382.8003       101355.5498
           0.0525       101367.7008       101389.1002       101384.8057       101354.5426
          0.05275        101355.075       101381.4324       101386.0899       101353.4866
            0.053       101345.0214       101371.4369         101386.37       101352.4718
          0.05325       101339.4968       101359.9027       101385.2778       101351.5665
           0.0535       101339.5767       101348.2535       101382.4176        101350.819
          0.05375       101345.0821       101338.3645       101377.4827        101350.262
            0.054        101354.651       101332.1686       101370.4026       101349.9315
          0.05425       101366.2545       101331.1386        101361.471       101349.8748
           0.0545       101377.8603       101335.8323       101351.4286       101350.1414
          0.05475       101388.0212       101345.6523       101341.4405       101350.7667
            0.055       101396.1586       101358.9139       101332.9553       101351.7592
          0.05525       101402.4553       101373.2844       101327.4807       101353.0878
           0.0555       101407.4591       101386.4437       101326.2644       101354.6731
          0.05575       101411.6343       101396.7172       101329.9302       101356.3839
            0.056       101415.0866       101403.4413       101338.1938       101358.0459
          0.05625       101417.5494       101406.9477        101349.897       101359.4525
           0.0565       101418.5758       101408.2088       101363.2263       101360.4042
          0.05675       101417.8108       101408.3023        101376.113       101360.7168
            0.057       101415.0986       101408.0537       101386.7281       101360.2317
          0.05725       101410.5426       101407.6483       101393.9188       101358.8332
           0.0575       101404.4588       101406.6875       101397.4223       101356.4778
          0.05775       101397.2203       101404.5098       101397.9191       101353.2027
            0.058       101389.1828       101400.5372       101396.5147       101349.1242
          0.05825       101380.6813       101394.4998        101394.312       101344.4653
           0.0585       101372.0974       101386.5168       101392.0637        101339.584
          0.05875       101363.9641       101377.0673       101389.9482       101334.9496
            0.059       101357.0409        101366.918       101387.5772       101331.0918
          0.05925         101352.28       101357.0403       101384.2463       101328.5303
           0.0595       101350.6418       101348.5145        101379.309       101327.6949
          0.05975       101352.7903       101342.4151       101372.5147       101328.8509
             0.06       101358.7796       101339.6596       101364.1942       101332.0505
          0.06025       101367.8962       101340.8201       101355.2337       101337.0934
           0.0605       101378.7267       101345.9404       101346.8666       101343.5418
          0.06075       101389.5113       101354.4356       101340.3681       101350.7681
            0.061       101398.6693        101365.138        101336.744       101358.0225
          0.06125       101405.2859       101376.5109       101336.5001       101364.5359
           0.0615       101409.3463       101386.9973       101339.5526       101369.6455
          0.06175       101411.6516       101395.4102       101345.2718       101372.9009
            0.062       101413.3657       101401.2225       101352.6719       101374.1162
          0.06225       101415.4271       101404.7187       101360.6362        101373.354
           0.0625        101418.135       101406.6823       101368.1366       101370.9019
          0.06275       101421.0511       101408.0363       101374.4515       101367.1722
            0.063       101423.1633       101409.4789       101379.2897        101362.594
          0.06325        101423.302        101411.212       101382.8009       101357.5944
           0.0635       101420.6126       101412.7071       101385.4796       101352.5863
          0.06375       101414.8924       101412.9479       101387.9562       101347.8551
            0.064       101406.6466       101410.9065       101390.7326       101343.6383
          0.06425       101396.9118       101405.9845       101393.8954       101340.0654
           0.0645       101386.9597       101398.3218       101396.9933       101337.2506
          0.06475       101378.0113       101388.7532         101399.17        101335.277
            0.065       101371.0568       101378.6041        101399.458       101334.2142
          0.06525       101366.7873       101369.3515       101397.1189       101334.1059
           0.0655       101365.5559       101362.2714       101391.9329       101334.9515
          0.06575         101367.44       101358.1814        101384.348       101336.6922
            0.066       101372.0834        101357.338       101375.4263        101339.226
          0.06625       101378.7119       101359.4798       101366.5899       101342.4273
           0.0665       101386.2586       101363.9915       101359.2568       101346.1371
          0.06675       101393.5941       101370.0669       101354.4773       101350.1728
            0.067        101399.784       101376.8485       101352.6883       101354.3571
          0.06725       101404.2811       101383.5509       101353.6671       101358.5161
           0.0675       101406.9953       101389.5568       101356.6857       101362.4745
          0.06775       101408.2443       101394.4484       101360.7942       101366.0472
            0.068       101408.5953       101398.0102       101365.1172       101369.0265
          0.06825       101408.6452       101400.2092       101369.0708       101371.1825
           0.0685       101408.7901       101401.1737       101372.4271       101372.2833
          0.06875       101409.0616       101401.1672       101375.2367       101372.1349
            0.069       101409.1088       101400.5192       101377.6585       101370.6317
          0.06925       101408.3733       101399.4794       101379.7972       101367.8032
           0.0695        101406.404       101398.1063       101381.6381       101363.8347
          0.06975       101403.1606       101396.2836       101383.0616       101359.0795
             0.07       101399.1502       101393.8521        101383.892       101354.0062
          0.07025       101395.3095       101390.7759       101383.9821       101349.1745
           0.0705       101392.6738       101387.2625       101383.2895       101345.1208
          0.07075       101391.9879       101383.7889       101381.9043       101342.2999
            0.071       101393.4484       101381.0176       101380.0219        101340.963
          0.07125       101396.6908       101379.6203        101377.887       101341.1308
           0.0715       101401.0068       101380.0657       101375.7476        101342.589
          0.07175       101405.6542       101382.4542        101373.841       101344.9745
            0.072       101410.0926       101386.4725       101372.4053       101347.8604
          0.07225       101414.0452       101391.4933       101371.6869       101350.8195
           0.0725         101417.41       101396.7698        101371.917       101353.5136
          0.07275       101420.1327       101401.6424       101373.2503       101355.7373
            0.073       101422.1482       101405.6775       101375.6882       101357.4121
          0.07325       101423.4184       101408.7106       101379.0283       101358.5535
           0.0735        101424.012       101410.8127       101382.8751       101359.2315
          0.07375       101424.1527       101412.2198       101386.7224       101359.5349
            0.074       101424.1991       101413.2585       101390.0853       101359.5402
          0.07425       101424.5928       101414.2728       101392.6343       101359.2958
           0.0745       101425.7454       101415.5491        101394.282        101358.825
          0.07475       101427.9184       101417.2505       101395.1929        101358.147
            0.075       101431.0689       101419.3682       101395.7163       101357.2984
          0.07525       101434.7224       101421.7452       101396.2671       101356.3465
           0.0755       101437.9434       101424.0412       101397.1983       101355.3872
          0.07575        101439.519        101425.808       101398.7016       101354.5314
            0.076       101438.3938       101426.5536       101400.7579       101353.8888
          0.07625       101434.2235       101425.8062       101403.1388       101353.5487
           0.0765       101427.7433       101423.1479       101405.4475       101353.5704