# Probe 0 (0.4 0.005 1.4)
# Probe 1 (0.9 0.005 1.4)
# Probe 2 (1.4 0.005 1.4)
# Probe 3 (1.9 0.005 1.4)
# Probe 4 (2.4 0.005 1.4)
# Probe 5 (2.9 0.005 1.4)
# Probe 6 (3.4 0.005 1.4)
# Probe 7 (3.9 0.005 1.4)
# Probe 8 (4.4 0.005 1.4)
# Probe 9 (4.9 0.005 1.4)
# Probe 10 (5.4 0.005 1.4)
# Probe 11 (5.9 0.005 1.4)
# Probe 12 (6.4 0.005 1.4)
# Probe 13 (6.9 0.005 1.4)
# Probe 14 (7.4 0.005 1.4)
# Probe 15 (7.9 0.005 1.4)
# Probe 16 (8.4 0.005 1.4)
#           Probe                 0                 1                 2                 3                 4                 5                 6                 7                 8                 9                10                11                12                13                14                15                16
#            Time
    1.1999904e-06                 1                 1                 1                 1      0.9999923815                 1                 1                 1                 1                 1                 1                 1                 1                 1                 1                 1                 1
  2.639965056e-06                 1                 1                 1      0.9999999999      0.9999832383                 1                 1                 1                 1                 1                 1                 1                 1                 1                 1                 1                 1
  4.367944597e-06                 1                 1                 1      0.9999999997       0.999972264                 1                 1                 1                 1                 1                 1                 1                 1                 1                 1                 1                 1
  6.441505713e-06                 1                 1                 1      0.9999999994      0.9999590915                 1                 1                 1                 1                 1                 1                 1                 1                 1                 1                 1                 1
   8.92973777e-06                 1                 1                 1       0.999999999      0.9999432795                 1                 1                 1                 1                 1                 1                 1                 1                 1                 1                 1                 1
  1.191552707e-05                 1                 1                 1      0.9999999982      0.9999242983                 1                 1                 1                 1                 1                 1                 1                 1                 1                 1                 1                 1
  1.549838863e-05                 1                 1                 1      0.9999999969      0.9999015107                 1                 1                 1                 1                 1                 1                 1                 1                 1                 1                 1                 1
  1.979776087e-05                 1                 1                 1       0.999999995      0.9998741505                 1                 1                 1                 1                 1                 1                 1                 1                 1                 1                 1                 1
  2.495674128e-05                 1                 1                 1      0.9999999921      0.9998412976                 1                 1                 1                 1                 1                 1                 1                 1                 1                 1                 1                 1
  3.114713435e-05                 1                 1                 1      0.9999999876      0.9998018444                 1                 1                 1                 1                 1                 1                 1                 1                 1                 1                 1                 1
  3.857523794e-05                 1                 1                 1       0.999999981      0.9997544565                 1                 1                 1                 1                 1                 1                 1                 1                 1                 1                 1                 1
  4.748896225e-05                 1                 1                 1      0.9999999711      0.9996975241                 1                 1                 1                 1                 1                 1                 1                 1                 1                 1                 1                 1
  5.818543142e-05                 1                 1                 1      0.9999999564      0.9996291084                 1                 1                 1                 1                 1                 1                 1                 1                 1                 1                 1                 1
  7.102064463e-05                 1                 1                 1      0.9999999346       0.999546873                 1                 1                 1                 1                 1                 1                 1                 1                 1                 1                 1                 1
  8.642131685e-05                 1                 1                 1      0.9999999022      0.9994479979                 1                 1                 1                 1                 1                 1                 1                 1                 1                 1                 1                 1
  0.0001049009832                 1                 1                 1      0.9999998539      0.9993290601                 1                 1                 1                 1                 1                 1                 1                 1                 1                 1                 1                 1
  0.0001270765827                 1                 1                 1      0.9999997813      0.9991859046                 1                 1                 1                 1                 1                 1                 1                 1                 1                 1                 1                 1
  0.0001536896689                 1                 1                 1      0.9999996711      0.9990134717                 1                 1                 1                 1                 1                 1                 1                 1                 1                 1                 1                 1
  0.0001856219625                 1                 1                 1      0.9999995017      0.9988056431      0.9999999999                 1                 1                 1                 1                 1                 1                 1                 1                 1                 1                 1
  0.0002239407148                 1                 1                 1      0.9999992367      0.9985548622      0.9999999999                 1                 1                 1                 1                 1                 1                 1                 1                 1                 1                 1
  0.0002699019884                 1                 1                 1      0.9999988138      0.9982519787      0.9999999996                 1                 1                 1                 1                 1                 1                 1                 1                 1                 1                 1
  0.0003250351347                 1                 1                 1       0.999998124      0.9978854782       0.999999999                 1                 1                 1                 1                 1                 1                 1                 1                 1                 1                 1
  0.0003911802278                 1                 1                 1      0.9999969754      0.9974408809      0.9999999972                 1                 1                 1                 1                 1                 1                 1                 1                 1                 1                 1
  0.0004705543394                 1                 1                 1      0.9999950323      0.9968997403      0.9999999923                 1                 1                 1                 1                 1                 1                 1                 1                 1                 1                 1
  0.0005658032734                 1                 1                 1      0.9999917239      0.9962384571       0.999999979                 1                 1                 1                 1                 1                 1                 1                 1                 1                 1                 1
  0.0006799700095                 1                 1                 1      0.9999861412      0.9954274127      0.9999999437                 1                 1                 1                 1                 1                 1                 1                 1                 1                 1                 1
  0.0008169700928                 1                 1                 1      0.9999769475      0.9944264023      0.9999998542                 1                 1                 1                 1                 1                 1                 1                 1                 1                 1                 1
  0.0009814618316                 1                 1                 1      0.9999624862      0.9931846354      0.9999996439                 1                 1                 1                 1                 1                 1                 1                 1                 1                 1                 1
   0.001179117227                 1                 1                 1      0.9999412197       0.991638972      0.9999991996                 1                 1                 1                 1                 1                 1                 1                 1                 1                 1                 1
   0.001416111804                 1                 1                 1      0.9999124961      0.9897190861      0.9999983816                 1                 1                 1                 1                 1                 1                 1                 1                 1                 1                 1
   0.001666544217                 1                 1                 1      0.9998806255      0.9876251231      0.9999972425                 1                 1                 1                 1                 1                 1                 1                 1                 1                 1                 1
   0.001916976631                 1                 1      0.9999999999      0.9998463578      0.9854658647      0.9999958941                 1                 1                 1                 1                 1                 1                 1                 1                 1                 1                 1
   0.002167409044                 1                 1      0.9999999999      0.9998076328       0.983230861      0.9999943598                 1                 1                 1                 1                 1                 1                 1                 1                 1                 1                 1
   0.002417841458                 1                 1      0.9999999998      0.9997635609      0.9809100758      0.9999926066                 1                 1                 1                 1                 1                 1                 1                 1                 1                 1                 1
   0.002668273871                 1                 1      0.9999999997      0.9997140405      0.9784982132      0.9999905672      0.9999999999                 1                 1                 1                 1                 1                 1                 1                 1                 1                 1
   0.002918706284                 1                 1      0.9999999995      0.9996594427      0.9759943701      0.9999881649      0.9999999999                 1                 1                 1                 1                 1                 1                 1                 1                 1                 1
   0.003169138698                 1                 1      0.9999999994      0.9995999935      0.9733987785      0.9999853284      0.9999999999                 1                 1                 1                 1                 1                 1                 1                 1                 1                 1
   0.003419571111                 1                 1      0.9999999992      0.9995352645       0.970709268      0.9999819868      0.9999999998                 1                 1                 1                 1                 1                 1                 1                 1                 1                 1
   0.003670003524                 1                 1       0.999999999      0.9994643975      0.9679209818      0.9999780635      0.9999999998                 1                 1                 1                 1                 1                 1                 1                 1                 1                 1
   0.003920435938                 1                 1      0.9999999987      0.9993868011      0.9650292004      0.9999734826      0.9999999997                 1                 1                 1                 1                 1                 1                 1                 1                 1                 1
   0.004170868351                 1                 1      0.9999999983      0.9993024851      0.9620315759      0.9999681875      0.9999999996                 1                 1                 1                 1                 1                 1                 1                 1                 1                 1
   0.004421300765                 1                 1      0.9999999979      0.9992118109      0.9589276503      0.9999621524      0.9999999995                 1                 1                 1                 1                 1                 1                 1                 1                 1                 1
   0.004671733178                 1                 1      0.9999999973      0.9991150294      0.9557167874      0.9999553767      0.9999999994                 1                 1                 1                 1                 1                 1                 1                 1                 1                 1
   0.004922165591                 1                 1      0.9999999966      0.9990120728      0.9523968635      0.9999478631      0.9999999992                 1                 1                 1                 1                 1                 1                 1                 1                 1                 1
   0.005172598005                 1                 1      0.9999999958      0.9989027004      0.9489647481      0.9999395964       0.999999999                 1                 1                 1                 1                 1                 1                 1                 1                 1                 1
   0.005423030418                 1                 1      0.9999999947      0.9987888451      0.9454164856      0.9999305347      0.9999999987                 1                 1                 1                 1                 1                 1                 1                 1                 1                 1
   0.005673462831                 1                 1      0.9999999934      0.9986666371      0.9417501569      0.9999206153      0.9999999983                 1                 1                 1                 1                 1                 1                 1                 1                 1                 1
   0.005923895245                 1                 1      0.9999999918      0.9985367407      0.9379598637      0.9999120754      0.9999999979                 1                 1                 1                 1                 1                 1                 1                 1                 1                 1
   0.006174327658                 1                 1        0.99999999      0.9983991675      0.9340447129      0.9999024916      0.9999999974                 1                 1                 1                 1                 1                 1                 1                 1                 1                 1
   0.006424760072                 1                 1      0.9999999878      0.9982537843      0.9299984045      0.9998944304      0.9999999968                 1                 1                 1                 1                 1                 1                 1                 1                 1                 1
   0.006675192485                 1                 1      0.9999999852      0.9981004307      0.9258189885      0.9998864577      0.9999999961                 1                 1                 1                 1                 1                 1                 1                 1                 1                 1
   0.006925624898                 1                 1      0.9999999821      0.9979389269       0.921504419      0.9998780815      0.9999999952                 1                 1                 1                 1                 1                 1                 1                 1                 1                 1
   0.007176057312                 1                 1      0.9999999784      0.9977690415      0.9170502704      0.9998691233      0.9999999942                 1                 1                 1                 1                 1                 1                 1                 1                 1                 1
   0.007426489725                 1                 1      0.9999999742      0.9975905296      0.9124610841      0.9998540128      0.9999999931                 1                 1                 1                 1                 1                 1                 1                 1                 1                 1
   0.007676922139                 1                 1      0.9999999692      0.9974031579      0.9077289389      0.9998360596      0.9999999918                 1                 1                 1                 1                 1                 1                 1                 1                 1                 1
   0.007927354552                 1                 1      0.9999999633      0.9972066717      0.9028488499      0.9998163252      0.9999999902                 1                 1                 1                 1                 1                 1                 1                 1                 1                 1
   0.008177786965                 1                 1      0.9999999566      0.9970007304      0.8978166449      0.9997950891      0.9999999884                 1                 1                 1                 1                 1                 1                 1                 1                 1                 1
   0.008428219379                 1                 1      0.9999999489      0.9967849782      0.8926283974      0.9997723776      0.9999999863                 1                 1                 1                 1                 1                 1                 1                 1                 1                 1
   0.008678651792                 1                 1        0.99999994      0.9965590207      0.8872799039      0.9997481394      0.9999999839                 1                 1                 1                 1                 1                 1                 1                 1                 1                 1
   0.008929084205                 1                 1      0.9999999299      0.9963224926      0.8817669845      0.9997223195      0.9999999811                 1                 1                 1                 1                 1                 1                 1                 1                 1                 1
   0.009179516619                 1                 1      0.9999999184      0.9960750415      0.8760855178      0.9996949227       0.999999978                 1                 1                 1                 1                 1                 1                 1                 1                 1                 1
   0.009429949032                 1                 1      0.9999999055      0.9958162995      0.8702314238      0.9996658446      0.9999999746                 1                 1                 1                 1                 1                 1                 1                 1                 1                 1
   0.009680381446                 1                 1      0.9999998909      0.9955458687      0.8642005503      0.9996350529      0.9999999709                 1                 1                 1                 1                 1                 1                 1                 1                 1                 1
   0.009930813859                 1                 1      0.9999998746      0.9952633151       0.857988589      0.9996024536      0.9999999668                 1                 1                 1                 1                 1                 1                 1                 1                 1                 1
    0.01018124627                 1                 1      0.9999998563       0.994968174      0.8515910647      0.9995678926      0.9999999623                 1                 1                 1                 1                 1                 1                 1                 1                 1                 1
    0.01043167869                 1                 1      0.9999998359      0.9946599423       0.845003334      0.9995313517      0.9999999573                 1                 1                 1                 1                 1                 1                 1                 1                 1                 1
     0.0106821111                 1                 1      0.9999998132      0.9943380821      0.8382206848      0.9994926863      0.9999999518                 1                 1                 1                 1                 1                 1                 1                 1                 1                 1
    0.01093254351                 1                 1      0.9999997878      0.9940020258      0.8312384127      0.9994517603      0.9999999459                 1                 1                 1                 1                 1                 1                 1                 1                 1                 1
    0.01118297593                 1                 1      0.9999997595      0.9936511837      0.8240517928      0.9994083228      0.9999999391                 1                 1                 1                 1                 1                 1                 1                 1                 1                 1
    0.01143340834                 1                 1      0.9999997298      0.9932849412      0.8166560357      0.9993622943      0.9999999314                 1                 1                 1                 1                 1                 1                 1                 1                 1                 1
    0.01168384075                 1                 1      0.9999997003      0.9929026532      0.8090462762      0.9993135506      0.9999999225                 1                 1                 1                 1                 1                 1                 1                 1                 1                 1
    0.01193427317                 1                 1      0.9999996743      0.9925036403      0.8012175814      0.9992619533      0.9999999122                 1                 1                 1                 1                 1                 1                 1                 1                 1                 1
    0.01218470558                 1                 1      0.9999996375      0.9920872073      0.7931650707       0.999207363      0.9999999003                 1                 1                 1                 1                 1                 1                 1                 1                 1                 1
    0.01243513799                 1                 1      0.9999995912      0.9916525701      0.7848836573      0.9991496302      0.9999998867                 1                 1                 1                 1                 1                 1                 1                 1                 1                 1
    0.01268557041                 1                 1      0.9999995531      0.9911988972      0.7763683934      0.9990886063      0.9999998711                 1                 1                 1                 1                 1                 1                 1                 1                 1                 1
    0.01293600282                 1                 1      0.9999994973      0.9907253418      0.7676144961      0.9990241431      0.9999998533                 1                 1                 1                 1                 1                 1                 1                 1                 1                 1
    0.01318643523                 1                 1      0.9999994361       0.990230993      0.7586176172      0.9989560928      0.9999998331                 1                 1                 1                 1                 1                 1                 1                 1                 1                 1
    0.01343686765                 1                 1      0.9999993637      0.9897149137      0.7493742243      0.9988843073      0.9999998101                 1                 1                 1                 1                 1                 1                 1                 1                 1                 1
    0.01368730006                 1                 1      0.9999992882      0.9891761345      0.7398825098       0.998808626      0.9999997842                 1                 1                 1                 1                 1                 1                 1                 1                 1                 1
    0.01393773247                 1                 1      0.9999992051      0.9886137052      0.7301448283      0.9987288852      0.9999997548                 1                 1                 1                 1                 1                 1                 1                 1                 1                 1
    0.01418816489                 1                 1      0.9999991072       0.988026807      0.7201766805      0.9986449241      0.9999997216                 1                 1                 1                 1                 1                 1                 1                 1                 1                 1
     0.0144385973                 1                 1      0.9999989948      0.9874155096      0.7100682662      0.9985566453      0.9999996841                 1                 1                 1                 1                 1                 1                 1                 1                 1                 1
    0.01468902971                 1                 1       0.999998869      0.9867943983      0.7014750397      0.9984649086      0.9999996419                 1                 1                 1                 1                 1                 1                 1                 1                 1                 1
    0.01493946213                 1                 1        0.99999873      0.9862107822      0.6985263181      0.9983737855      0.9999995947                 1                 1                 1                 1                 1                 1                 1                 1                 1                 1
    0.01518989454                 1                 1      0.9999985787      0.9856598429       0.696348717      0.9982872673      0.9999995425                 1                 1                 1                 1                 1                 1                 1                 1                 1                 1
    0.01544032695                 1                 1      0.9999984177      0.9851302271      0.6942084947      0.9982066794      0.9999994859                 1                 1                 1                 1                 1                 1                 1                 1                 1                 1
    0.01569075937                 1                 1      0.9999982508       0.984604603      0.6920387625      0.9981300506      0.9999994264                 1                 1                 1                 1                 1                 1                 1                 1                 1                 1
    0.01594119178                 1                 1      0.9999980825      0.9840703864      0.6898153451      0.9980538791      0.9999993653                 1                 1                 1                 1                 1                 1                 1                 1                 1                 1
    0.01619162419                 1                 1      0.9999979165      0.9835221493      0.6875407067       0.997975195       0.999999304                 1                 1                 1                 1                 1                 1                 1                 1                 1                 1
    0.01644205661                 1                 1      0.9999977542      0.9829608898      0.6852328536      0.9978926347      0.9999992433                 1                 1                 1                 1                 1                 1                 1                 1                 1                 1