# Probe 0 (0.4 0.005 1.4)
# Probe 1 (0.9 0.005 1.4)
# Probe 2 (1.4 0.005 1.4)
# Probe 3 (1.9 0.005 1.4)
# Probe 4 (2.4 0.005 1.4)
# Probe 5 (2.9 0.005 1.4)
# Probe 6 (3.4 0.005 1.4)
# Probe 7 (3.9 0.005 1.4)
# Probe 8 (4.4 0.005 1.4)
# Probe 9 (4.9 0.005 1.4)
# Probe 10 (5.4 0.005 1.4)
# Probe 11 (5.9 0.005 1.4)
# Probe 12 (6.4 0.005 1.4)
# Probe 13 (6.9 0.005 1.4)
# Probe 14 (7.4 0.005 1.4)
# Probe 15 (7.9 0.005 1.4)
# Probe 16 (8.4 0.005 1.4)
#           Probe                 0                 1                 2                 3                 4                 5                 6                 7                 8                 9                10                11                12                13                14                15                16
#            Time
    1.1999904e-06            293.15            293.15            293.15       293.1500001       293.1647296            293.15            293.15            293.15            293.15            293.15            293.15            293.15            293.15            293.15            293.15            293.15            293.15
  2.639965056e-06            293.15            293.15            293.15       293.1500002       293.1824069            293.15            293.15            293.15       293.1499999            293.15            293.15            293.15            293.15            293.15            293.15            293.15            293.15
  4.367944597e-06            293.15            293.15            293.15       293.1500006       293.2036231            293.15            293.15            293.15       293.1499999            293.15            293.15            293.15            293.15            293.15            293.15            293.15            293.15
  6.441505713e-06            293.15            293.15            293.15       293.1500013       293.2290879       293.1500001            293.15            293.15       293.1499998       293.1499999            293.15            293.15            293.15            293.15            293.15            293.15            293.15
   8.92973777e-06            293.15            293.15            293.15       293.1500025       293.2596535       293.1500003            293.15            293.15       293.1499998       293.1499999            293.15            293.15            293.15            293.15            293.15            293.15            293.15
  1.191552707e-05            293.15            293.15            293.15       293.1500045       293.2963423       293.1500006            293.15            293.15       293.1499997       293.1499999            293.15            293.15            293.15            293.15            293.15            293.15            293.15
  1.549838863e-05            293.15            293.15            293.15       293.1500081        293.340384       293.1500013            293.15            293.15       293.1499996       293.1499998            293.15            293.15            293.15            293.15            293.15            293.15            293.15
  1.979776087e-05            293.15            293.15            293.15        293.150014       293.3932543       293.1500026            293.15            293.15       293.1499995       293.1499998            293.15            293.15            293.15            293.15            293.15            293.15            293.15
  2.495674128e-05            293.15            293.15            293.15       293.1500238       293.4567252       293.1500052            293.15            293.15       293.1499994       293.1499997            293.15            293.15            293.15            293.15            293.15            293.15            293.15
  3.114713435e-05            293.15            293.15            293.15       293.1500402       293.5329254       293.1500101            293.15            293.15       293.1499992       293.1499997            293.15            293.15            293.15            293.15            293.15            293.15            293.15
  3.857523794e-05            293.15            293.15            293.15       293.1500675       293.6244122       293.1500191            293.15            293.15        293.149999       293.1499996            293.15            293.15            293.15            293.15            293.15            293.15            293.15
  4.748896225e-05            293.15            293.15            293.15       293.1501129       293.7342589       293.1500356            293.15            293.15       293.1499988       293.1499995            293.15            293.15            293.15            293.15            293.15            293.15            293.15
  5.818543142e-05            293.15            293.15            293.15       293.1501886       293.8661456       293.1500654            293.15            293.15       293.1499986       293.1499994            293.15            293.15            293.15            293.15            293.15            293.15            293.15
  7.102064463e-05            293.15            293.15            293.15       293.1503154       294.0244712       293.1501188            293.15            293.15       293.1499982       293.1499992            293.15            293.15            293.15            293.15            293.15            293.15            293.15
  8.642131685e-05            293.15            293.15       293.1500001       293.1505282        294.214483       293.1502139            293.15            293.15       293.1499979        293.149999            293.15            293.15            293.15            293.15            293.15            293.15            293.15
  0.0001049009832            293.15            293.15       293.1500002       293.1508865       294.4424433        293.150382       293.1500001            293.15       293.1499974       293.1499988            293.15            293.15            293.15            293.15            293.15            293.15            293.15
  0.0001270765827            293.15            293.15       293.1500004       293.1514914         294.71577       293.1506775       293.1500002            293.15       293.1499969       293.1499986            293.15            293.15            293.15            293.15            293.15            293.15            293.15
  0.0001536896689            293.15            293.15       293.1500011       293.1525144       295.0431806       293.1511944       293.1500004            293.15       293.1499962       293.1499983            293.15            293.15            293.15            293.15            293.15            293.15            293.15
  0.0001856219625            293.15            293.15       293.1500029       293.1542455       295.4346734       293.1520931       293.1500011            293.15       293.1499954       293.1499979            293.15            293.15            293.15            293.15            293.15            293.15            293.15
  0.0002239407148            293.15            293.15       293.1500074       293.1571717       295.9017165       293.1536458       293.1500028            293.15       293.1499945       293.1499974            293.15            293.15            293.15            293.15            293.15            293.15            293.15
  0.0002699019884            293.15            293.15       293.1500187       293.1620981       296.4566723        293.156306        293.150007            293.15       293.1499934       293.1499969            293.15            293.15            293.15            293.15            293.15            293.15            293.15
  0.0003250351347            293.15       293.1500001       293.1500466       293.1703345       297.1128346       293.1608179       293.1500176            293.15        293.149992       293.1499962            293.15            293.15            293.15            293.15            293.15            293.15            293.15
  0.0003911802278            293.15       293.1500002       293.1501153       293.1839414       297.8833752       293.1683652        293.150044            293.15       293.1499904       293.1499953            293.15            293.15            293.15            293.15            293.15            293.15            293.15
  0.0004705543394            293.15       293.1500007       293.1502817        293.205992       298.7800931       293.1807497       293.1501086            293.15       293.1499885       293.1499943            293.15            293.15            293.15            293.15            293.15            293.15            293.15
  0.0005658032734            293.15       293.1500023       293.1506776        293.240655       299.8118371       293.2005126       293.1502654            293.15       293.1499862       293.1499928            293.15            293.15            293.15            293.15            293.15            293.15            293.15
  0.0006799700095            293.15       293.1500081       293.1515945       293.2925883       300.9834346       293.2307537       293.1506382       293.1500004       293.1499835        293.149991       293.1499999            293.15            293.15            293.15            293.15            293.15            293.15
  0.0008169700928            293.15       293.1500274       293.1536453       293.3651109       302.3045451       293.2743559       293.1515021       293.1500021       293.1499804       293.1499885       293.1499998            293.15            293.15            293.15            293.15            293.15            293.15
  0.0009814618316       293.1500003       293.1500903       293.1580111       293.4558052       303.8030315       293.3316841       293.1534303       293.1500101       293.1499768       293.1499852       293.1499996            293.15            293.15            293.15            293.15            293.15            293.15
   0.001179117227       293.1500013       293.1502853       293.1666728       293.5504423       305.5608168        293.396535       293.1575029       293.1500441        293.149973       293.1499808       293.1499991            293.15            293.15            293.15            293.15            293.15            293.15
   0.001416111804       293.1500067       293.1508518       293.1821505       293.6200356       307.7550433       293.4515685       293.1654001        293.150175       293.1499703       293.1499749       293.1499981       293.1499999            293.15            293.15            293.15            293.15            293.15
   0.001666544217       293.1500259       293.1521133       293.2032238       293.6353244       310.3096942       293.4706944       293.1772573       293.1505405       293.1499738        293.149968       293.1499963       293.1499999            293.15            293.15            293.15            293.15            293.15
   0.001916976631       293.1500777       293.1543711       293.2260986       293.6133498       313.1280326       293.4493597       293.1917167       293.1513275       293.1499933       293.1499606       293.1499935       293.1499996            293.15            293.15            293.15            293.15            293.15
   0.002167409044       293.1501968       293.1578935       293.2465594       293.5859691       316.1653738       293.3988151       293.2068101       293.1527734       293.1500479       293.1499533       293.1499896       293.1499992            293.15            293.15            293.15            293.15            293.15
   0.002417841458        293.150439       293.1627984       293.2605016       293.5767322        319.376137       293.3369598       293.2200423       293.1551205       293.1501707       293.1499472       293.1499842       293.1499985            293.15            293.15            293.15            293.15            293.15
   0.002668273871       293.1508848       293.1689719       293.2652936       293.5987899        322.736786       293.2807021       293.2290643       293.1585531       293.1504124       293.1499452       293.1499772       293.1499974       293.1499999            293.15            293.15            293.15            293.15
   0.002918706284       293.1516387        293.176033       293.2605558       293.6524481        326.234244       293.2396867        293.232327       293.1631271       293.1508423       293.1499525       293.1499687       293.1499955       293.1499998            293.15            293.15            293.15            293.15
   0.003169138698       293.1528238       293.1833612       293.2480812       293.7313398       329.8606196       293.2160954       293.2294676       293.1687144       293.1515475       293.1499778       293.1499592       293.1499927       293.1499996            293.15            293.15            293.15            293.15
   0.003419571111       293.1545699       293.1901712       293.2310098       293.8301898       333.6069002       293.2093561       293.2212801       293.1749789       293.1526258       293.1500344       293.1499498       293.1499887       293.1499992            293.15            293.15            293.15            293.15
   0.003670003524       293.1569952       293.1956373        293.212866       293.9449577       337.4622167       293.2165944       293.2094184       293.1813888       293.1541739       293.1501421       293.1499427       293.1499832       293.1499985       293.1499999            293.15            293.15            293.15
   0.003920435938       293.1601847       293.1990459       293.1968185       294.0722853       341.4227574       293.2333959       293.1959465       293.1872609       293.1562697       293.1503287       293.1499415       293.1499762       293.1499974       293.1499998            293.15            293.15            293.15
   0.004170868351       293.1641645       293.1999245       293.1849231       294.2081177       345.4959515       293.2548614       293.1827861       293.1918537       293.1589522       293.1506301       293.1499516        293.149968       293.1499957       293.1499997            293.15            293.15            293.15
   0.004421300765       293.1688774       293.1981247       293.1778447       294.3487277       349.6965212       293.2765332       293.1714313       293.1944955       293.1621989       293.1510921       293.1499794       293.1499592       293.1499932       293.1499994            293.15            293.15            293.15
   0.004671733178       293.1741624       293.1938522       293.1753594       294.4920141       354.0384214       293.2950151       293.1628737       293.1947126       293.1659057       293.1517662       293.1500342       293.1499513       293.1499896       293.1499989       293.1499999            293.15            293.15
   0.004922165591        293.179749       293.1876588       293.1765355        294.638234       358.5305955       293.3087534       293.1574737       293.1923317       293.1698724       293.1527067       293.1501281       293.1499466       293.1499849       293.1499982       293.1499999            293.15            293.15
   0.005172598005       293.1852638       293.1804077       293.1799129       294.7893859        363.177089       293.3183003       293.1549422       293.1875434       293.1738005       293.1539643       293.1502774       293.1499484       293.1499791       293.1499971       293.1499998            293.15            293.15
   0.005423030418       293.1902638       293.1730943       293.1839622       294.9443136       367.9808561       293.3257134       293.1545441       293.1808958        293.177314        293.155577       293.1505043       293.1499608       293.1499723       293.1499956       293.1499997            293.15            293.15
   0.005673462831       293.1942958       293.1665887       293.1876527        295.112156       372.9402738       293.3335365       293.1554499       293.1732138       293.1800043       293.1575584       293.1508361       293.1499889       293.1499653       293.1499933       293.1499994            293.15            293.15
   0.005923895245       293.1969724       293.1615334       293.1906798       295.2928428        378.060852       293.3394978       293.1570059       293.1654568        293.181495        293.159886       293.1513045       293.1500385       293.1499592       293.1499904        293.149999       293.1499999            293.15
   0.006174327658       293.1980455       293.1583362       293.1933073       295.4863041       383.3393422       293.3489938       293.1588715       293.1585184       293.1815164       293.1624883       293.1519449       293.1501173       293.1499559       293.1499867       293.1499984       293.1499999            293.15
   0.006424760072       293.1974548       293.1571833       293.1960936       295.6920157       388.7828764       293.3581745         293.16103       293.1530694       293.1799704       293.1652378       293.1527932       293.1502357       293.1499578       293.1499823       293.1499975       293.1499998            293.15
   0.006675192485       293.1953409       293.1580781       293.1996058       295.9093184       394.3924289       293.3690371       293.1636547       293.1495135       293.1769693       293.1679513        293.153882       293.1504071       293.1499681       293.1499776       293.1499963       293.1499996            293.15
   0.006925624898       293.1920161       293.1609087       293.2042142       296.1378309       400.1709424       293.3815109       293.1669667       293.1480083       293.1728387       293.1704025       293.1552339       293.1506486         293.14999        293.149973       293.1499946       293.1499994            293.15
   0.007176057312       293.1879405       293.1654917       293.2100062       296.3776349       406.1235875        293.395198       293.1711232       293.1484843       293.1680894       293.1723497       293.1568545       293.1509809       293.1500273       293.1499696       293.1499924        293.149999       293.1499999
   0.007426489725       293.1836453       293.1715742       293.2168123       296.6290617       412.2395756       293.4197605       293.1761621       293.1507075       293.1633463       293.1735739       293.1587245       293.1514273       293.1500848       293.1499687       293.1499897       293.1499985       293.1499999
   0.007676922139       293.1796035       293.1789094       293.2243024       296.8925061       418.5310857       293.4478273       293.1819747       293.1544548       293.1592555       293.1739207       293.1607935       293.1520134       293.1501691       293.1499722       293.1499865       293.1499978       293.1499998
   0.007927354552       293.1762399       293.1871968       293.2320846       297.1682702       425.0041109       293.4768331       293.1883318       293.1595078       293.1564069       293.1733401       293.1629757       293.1527646       293.1502891       293.1499821        293.149983       293.1499968       293.1499997
   0.008177786965       293.1739476       293.1960807       293.2397911        297.456806       431.6625548       293.5063114        293.194924       293.1656082       293.1552595       293.1719131       293.1651522       293.1537036       293.1504563       293.1500011       293.1499797       293.1499955       293.1499995
   0.008428219379       293.1731278        293.205047        293.247013       297.7580786       438.5068198       293.5364197       293.2012668       293.1724041       293.1560766       293.1698636       293.1671791       293.1548451       293.1506851       293.1500319       293.1499772       293.1499938       293.1499993
   0.008678651792       293.1741379       293.2134484       293.2533373       298.0724031       445.5396937        293.567568       293.2067568       293.1795061       293.1589133       293.1675387       293.1689075       293.1561931       293.1509926       293.1500782       293.1499764       293.1499918       293.1499989
   0.008929084205       293.1772079       293.2205998       293.2583636       298.4000502        452.764759       293.5999576       293.2107959        293.186473       293.1636259       293.1653768       293.1702069       293.1577354       293.1513984       293.1501451       293.1499787       293.1499894       293.1499983
   0.009179516619       293.1824574       293.2258708       293.2616898       298.7413885       460.1865217       293.6334871        293.212873       293.1927998       293.1698896       293.1638473       293.1709919       293.1594404       293.1519237       293.1502391       293.1499858        293.149987       293.1499976
   0.009429949032       293.1896887       293.2288378       293.2630045       299.0969951       467.8100831         293.66819       293.2127261       293.1979527       293.1772197       293.1633755       293.1712467       293.1612556       293.1525902       293.1503689       293.1499994       293.1499848       293.1499966
   0.009680381446        293.198387       293.2292987       293.2621906       299.4676923       475.6410361       293.7041005       293.2103962        293.201436       293.1849975        293.164271       293.1710379       293.1631093       293.1534171        293.150545       293.1500216       293.1499833       293.1499954
   0.009930813859       293.2077643        293.227329       293.2593893       299.8545325       483.6856168       293.7415942       293.2062206       293.2028697       293.1925042       293.1666764       293.1705154       293.1649164       293.1544192       293.1507804       293.1500548       293.1499832       293.1499939
    0.01018124627        293.216835       293.2233511       293.2550116       300.2587388       491.9508834       293.7813831        293.200792       293.2021401       293.1989762       293.1705273       293.1699026       293.1665875       293.1556033       293.1510898       293.1501027       293.1499855       293.1499921
    0.01043167869       293.2245198       293.2180671       293.2497015       300.6816548       500.4446537       293.8241342        293.194883       293.1993838        293.203687       293.1755257       293.1694668       293.1680418       293.1569651       293.1514897       293.1501701       293.1499915       293.1499902
     0.0106821111       293.2297759       293.2123576       293.2442625       301.1246596        509.173047        293.870862        293.189345       293.1950108       293.2060476       293.1811472       293.1694713       293.1692206       293.1584868       293.1519972       293.1502636       293.1500023       293.1499884
    0.01093254351       293.2317593       293.2071613       293.2395616       301.5890755       518.1414215       293.9225221       293.1850068       293.1896636       293.2057009       293.1866928       293.1701221       293.1700972       293.1601349       293.1526293       293.1503912       293.1500197       293.1499869
    0.01118297593        293.229959       293.2033337       293.2364195       302.0760822       527.3552461       293.9800719       293.1825783       293.1841346       293.2025975       293.1913749       293.1715155        293.170684         293.16186       293.1534007       293.1505626       293.1500456       293.1499863
    0.01143340834       293.2243562       293.2015119       293.2355032        302.586673       536.8197392       294.0439652       293.1825701       293.1792487       293.1970805       293.1944243       293.1735977       293.1710324        293.163599       293.1543224       293.1507892       293.1500829       293.1499874
    0.01168384075       293.2155296         293.20201       293.2372198       303.1216567       546.5398794       294.1143887       293.1852085        293.175733       293.1898408       293.1952453       293.1761533       293.1712231       293.1652789       293.1553992        293.151084       293.1501355        293.149991
    0.01193427317       293.2048108       293.2047624       293.2416439       303.6816799       556.5204109       294.1912731       293.1903971       293.1741037       293.1818306       293.1935066       293.1788114       293.1713483       293.1668235       293.1566275       293.1514613       293.1502086       293.1499983
    0.01218470558       293.1937634       293.2093937       293.2484877       304.2671329        566.765071       294.2742636       293.1977192       293.1745901       293.1741368       293.1892241       293.1810918        293.171488       293.1681616       293.1579927       293.1519361       293.1503083       293.1500103
    0.01243513799        293.184081       293.2152857        293.257162       304.8786484       577.2787066       294.3629485       293.2065073       293.1771012       293.1678284       293.1827964       293.1824824       293.1716862       293.1692339       293.1594684        293.152523       293.1504424       293.1500283
    0.01268557041       293.1774464        293.221702       293.2668435       305.5168435       588.0656068        294.456832       293.2159531       293.1812523       293.1638014        293.174997       293.1825341       293.1719297       293.1699988       293.1610151       293.1532353       293.1506196       293.1500542
    0.01293600282       293.1751841       293.2279529       293.2766265       306.1824174       599.1298961       294.5554422       293.2252437       293.1865135       293.1626563       293.1669218       293.1809558       293.1721378       293.1704344         293.16258       293.1540829       293.1508504       293.1500912
    0.01318643523       293.1780744       293.2335426       293.2856159       306.8762434       610.4753337       294.6584131       293.2336765       293.1923598       293.1646323       293.1597875       293.1776936       293.1721673       293.1705373       293.1640994       293.1550705        293.151146       293.1501432
    0.01343686765       293.1861836       293.2382713       293.2930959       307.5993675       622.1049804       294.7655352        293.240753       293.1983668       293.1695963       293.1547758       293.1729823       293.1718397       293.1703186        293.165502       293.1561958       293.1515188       293.1502149
    0.01368730006       293.1987701       293.2422651       293.2986107       308.3529967       634.0199675       294.8767631       293.2462441       293.2042579        293.177119       293.1528327       293.1673455       293.1709721       293.1697975       293.1667138       293.1574464       293.1519813       293.1503122
    0.01393773247       293.2146698       293.2459373       293.3020654       309.1383755       646.2160498       294.9922226       293.2502119       293.2099572       293.1865737       293.1544883       293.1615548       293.1694383       293.1689953       293.1676633       293.1587983       293.1525454       293.1504421
    0.01418816489       293.2322459       293.2498879       293.3037212       309.9565107        658.671053       295.1121407       293.2529828       293.2155621       293.1971738       293.1597527       293.1565348       293.1671919         293.16793       293.1682871       293.1602147       293.1532213       293.1506126
     0.0144385973       293.2496952       293.2547483       293.3041353       310.8065998       671.2586634       295.2365996       293.2550746       293.2212827       293.2080333       293.1680774       293.1532214       293.1643286       293.1666153       293.1685351       293.1616451       293.1540156        293.150833
    0.01468902971       293.2654157        293.260988       293.3040259       311.6602115        681.703126       295.3628421       293.2570775       293.2273458       293.2182764        293.178497       293.1523874       293.1610935       293.1650671       293.1683753        293.163026       293.1549301       293.1511139
    0.01493946213       293.2782831       293.2687749       293.3040052       312.4297589       684.5295519       295.4788076       293.2594682       293.2338829       293.2271489       293.1897728       293.1545177       293.1578827       293.1633136       293.1677965       293.1642838       293.1559593       293.1514663
    0.01518989454       293.2877669       293.2778749       293.3042573       313.1369883       687.0290451       295.5739566       293.2624033       293.2408322       293.2341231       293.2006437       293.1596619       293.1552034       293.1614054       293.1668116       293.1653393       293.1570889       293.1519015
    0.01544032695       293.2939022       293.2876441       293.3043575       313.8148222       690.0724285       295.6479907       293.2655826       293.2478732       293.2389698       293.2100337       293.1674256        293.153598       293.1594258       293.1654588       293.1661136       293.1582939       293.1524302
    0.01569075937       293.2971272       293.2971873        293.303358       314.5018136       693.3820603        295.711911       293.2682402       293.2544156       293.2417965       293.2172457       293.1769799       293.1535546       293.1575107       293.1638019       293.1665355       293.1595372       293.1530612
    0.01594119178       293.2980704       293.3054296       293.3001879       315.2221002       696.7235077       295.7815505       293.2693155       293.2597426         293.24291       293.2219386       293.1872537       293.1554234       293.1558396       293.1619304       293.1665493       293.1607698       293.1538002
    0.01619162419       293.2973874       293.3112997       293.2942174       315.9822134       700.0025021       295.8693812       293.2677857       293.2630651       293.2426924       293.2241694       293.1970803       293.1593301       293.1546367       293.1599568       293.1661221       293.1619315       293.1546482
    0.01644205661       293.2956194       293.3139247       293.2856676       316.7740696       703.2363094       295.9795316       293.2630095       293.2636985       293.2414876        293.224273       293.2054107       293.1651188       293.1541487       293.1580142       293.1652495       293.1629539       293.1555993