# Probe 0 (2.4 2.295 1.5)
#           Probe                 0
#            Time
    1.1999904e-06            101325
  2.639965056e-06            101325
  4.367944597e-06            101325
  6.441505713e-06            101325
   8.92973777e-06            101325
  1.191552707e-05            101325
  1.549838863e-05            101325
  1.979776087e-05            101325
  2.495674128e-05            101325
  3.114713435e-05            101325
  3.857523794e-05            101325
  4.748896225e-05            101325
  5.818543142e-05            101325
  7.102064463e-05            101325
  8.642131685e-05            101325
  0.0001049009832            101325
  0.0001270765827            101325
  0.0001536896689            101325
  0.0001856219625            101325
  0.0002239407148            101325
  0.0002699019884            101325
  0.0003250351347            101325
  0.0003911802278            101325
  0.0004705543394            101325
  0.0005658032734            101325
  0.0006799700095            101325
  0.0008169700928            101325
  0.0009814618316            101325
   0.001179117227            101325
   0.001416111804       101325.0001
   0.001666544217       101325.0009
   0.001916976631        101325.004
   0.002167409044        101325.014
   0.002417841458       101325.0419
   0.002668273871       101325.1099
   0.002918706284       101325.2599
   0.003169138698       101325.5626
   0.003419571111       101326.1276
   0.003670003524       101327.1106
   0.003920435938       101328.7147
   0.004170868351        101331.181
   0.004421300765       101334.7637
   0.004671733178       101339.6885
   0.004922165591       101346.0944
   0.005172598005       101353.9632
   0.005423030418       101363.0487
   0.005673462831       101372.8234
   0.005923895245       101382.4643
   0.006174327658       101390.9035
   0.006424760072       101396.9585
   0.006675192485       101399.5415
   0.006925624898       101397.9112
   0.007176057312       101391.9085
   0.007426489725       101382.2076
   0.007676922139       101370.0839
   0.007927354552       101357.3679
   0.008177786965       101346.1249
   0.008428219379       101338.2629
   0.008678651792       101335.1781
   0.008929084205       101337.5163
   0.009179516619       101345.2855
   0.009429949032       101357.8412
   0.009680381446       101373.9113
   0.009930813859        101391.772
    0.01018124627       101409.4499
    0.01043167869        101424.862
     0.0106821111        101435.956
    0.01093254351       101440.9535
    0.01118297593       101438.7075
    0.01143340834       101429.1228
    0.01168384075       101413.3456
    0.01193427317       101393.4743
    0.01218470558       101372.3206
    0.01243513799       101353.0086
    0.01268557041       101338.5245
    0.01293600282       101331.2224
    0.01318643523       101332.4878
    0.01343686765       101342.3901
    0.01368730006       101359.5922
    0.01393773247       101381.5835
    0.01418816489       101405.3227
     0.0144385973       101427.8393
    0.01468902971       101446.7926
    0.01493946213       101460.8237
    0.01518989454       101469.6863
    0.01544032695       101474.1371
    0.01569075937       101475.4852
    0.01594119178       101475.1668
    0.01619162419       101474.2836
    0.01644205661       101473.3453
    0.01669248902       101472.2735
    0.01694292143       101470.5589
    0.01719335385        101467.481
    0.01744378626       101462.4023
    0.01769421867       101454.9788
    0.01794465109       101445.3899
     0.0181950835       101434.4303
    0.01844551591       101423.4168
    0.01869594833       101413.9329
    0.01894638074       101407.4865
    0.01919681315       101405.1817
    0.01944724557       101407.4777
    0.01969767798       101414.0418
    0.01994811039       101423.8538
    0.02019854281       101435.3741
    0.02044897522       101446.8891
    0.02069940763       101457.0467
    0.02094984005       101465.0606
    0.02120027246       101470.7988
    0.02145070487       101474.7177
    0.02170113729       101477.6398
     0.0219515697       101480.4412
    0.02220200211       101483.7877
    0.02245243453       101487.6875
    0.02270286694       101491.4986
    0.02295329935        101494.195
    0.02320373177       101494.6821
    0.02345416418       101492.1627
    0.02370459659       101486.4143
    0.02395502901       101477.9006
    0.02420546142       101467.7193
    0.02445589384       101457.4374
    0.02470632625        101448.872
    0.02495675866       101443.6798
    0.02520719108       101442.9418
    0.02545762349       101447.0382
     0.0257080559       101455.6237
    0.02595848832       101467.7689
    0.02620892073       101482.1662
    0.02645935314       101497.3152
    0.02670978556       101511.6864
    0.02696021797       101523.9386
    0.02721065038        101533.123
     0.0274610828       101538.7066
    0.02771151521       101540.5301
    0.02796194762       101538.6439
    0.02821238004       101533.2495
    0.02846281245       101524.5835
    0.02871324486       101512.9246
    0.02896367728        101498.684
    0.02921410969       101482.5058
     0.0294645421       101465.3394
    0.02971497452       101448.3945
    0.02996540693       101433.0659
    0.03021583934       101420.7858
    0.03046627176       101412.8454
    0.03071670417       101410.3045
    0.03096713658       101413.9236
      0.031217569       101423.9839
    0.03146800141       101440.2437
    0.03171843382       101461.8366
    0.03196886624       101487.2646
    0.03221929865       101514.5533
    0.03246973106       101541.4722
    0.03272016348       101565.8242
    0.03297059589       101585.6222
     0.0332210283       101599.2392
    0.03347146072       101605.6262
    0.03372189313       101604.5204
    0.03397232554       101596.5251
    0.03422275796       101583.1037
    0.03447319037       101566.3228
    0.03472362278       101548.3611
     0.0349740552       101531.0907
    0.03522448761       101515.9338
    0.03547492002       101503.8135
    0.03572535244       101495.0643
    0.03597578485       101489.4032
    0.03622621726       101486.0798
    0.03647664968       101484.0856
    0.03672708209       101482.5302
     0.0369775145       101480.8807
    0.03722794692       101479.0496
    0.03747837933       101477.3682
    0.03772881174       101476.4558
    0.03797924416       101477.0346
    0.03822967657       101479.7106
    0.03848010898       101484.8466
     0.0387305414       101492.4881
    0.03898097381       101502.3213
    0.03923140622       101513.7004
    0.03948183864       101525.7808
    0.03973227105       101537.7075
    0.03998270346       101548.7168
    0.04023313588        101558.207
    0.04048356829        101565.698
     0.0407340007       101570.7707
    0.04098443312       101573.0795
    0.04123486553       101572.3761
    0.04148529795       101568.5495
    0.04173573036       101561.7031
    0.04198616277       101552.2137
    0.04223659519       101540.7781
     0.0424870276       101528.4445
    0.04273746001       101516.5168
    0.04298789243       101506.3628
    0.04323832484       101499.2318
    0.04348875725       101496.1211
    0.04373918967       101497.6354
    0.04398962208       101503.8866
    0.04424005449        101514.437
    0.04449048691       101528.3255
    0.04474091932       101544.1859
    0.04499135173         101560.37
    0.04524178415       101575.2138
    0.04549221656       101587.1667
    0.04574264897       101595.0235
    0.04599308139       101598.0816
     0.0462435138       101596.2399
    0.04649394621       101589.9227
    0.04674437863       101579.9972
    0.04699481104       101567.6274
    0.04724524345       101554.0703
    0.04749567587       101540.5248
    0.04774610828        101528.075
    0.04799654069       101517.6311
    0.04824697311        101509.846
    0.04849740552       101505.0936
    0.04874783793       101503.4837
    0.04899827035       101504.9721
    0.04924870276       101509.2448
    0.04949913517       101515.9296
    0.04974956759       101524.6941
             0.05       101535.1583
          0.05025       101546.9164
           0.0505       101559.6351
          0.05075       101572.9201
            0.051       101586.2599
          0.05125       101598.9752
           0.0515       101610.2512
          0.05175       101619.2371
            0.052       101625.1469
          0.05225       101627.3376
           0.0525       101625.3735
          0.05275       101619.1037
            0.053        101608.709
          0.05325       101594.7535
           0.0535       101578.2207
          0.05375       101560.4243
            0.054       101542.8663
          0.05425       101527.0722
           0.0545       101514.4259
          0.05475       101506.0465
            0.055       101502.6951
          0.05525       101504.7521
           0.0555       101512.1307
          0.05575       101524.3231
            0.056       101540.4874
          0.05625       101559.4955
           0.0565       101579.9623
          0.05675       101600.3251
            0.057       101619.0184
          0.05725       101634.6985
           0.0575       101646.4208
          0.05775       101653.7208
            0.058       101656.6062
          0.05825       101655.4877
           0.0585       101651.0668
          0.05875       101644.2068
            0.059       101635.8315
          0.05925        101626.775
           0.0595       101617.6743
          0.05975       101608.9894
             0.06       101601.0285
          0.06025       101594.0076
           0.0605       101588.1128
          0.06075       101583.5289
            0.061       101580.4326
          0.06125       101578.9589
           0.0615       101579.1424
          0.06175       101580.8948
            0.062       101584.0101
          0.06225       101588.2094
           0.0625       101593.1924
          0.06275       101598.6978
            0.063       101604.5433
          0.06325       101610.6294
           0.0635       101616.9015
          0.06375       101623.2892
            0.064       101629.6559
          0.06425        101635.768
           0.0645        101641.283
          0.06475        101645.775
            0.065       101648.7929
          0.06525       101649.9646
           0.0655       101649.1253
          0.06575       101646.4255
            0.066       101642.3645
          0.06625       101637.7481
           0.0665        101633.563
          0.06675       101630.8024
            0.067       101630.2915
          0.06725       101632.5498
           0.0675       101637.7133
          0.06775       101645.5343
            0.068       101655.4415
          0.06825       101666.6328
           0.0685       101678.1968
          0.06875       101689.2329
            0.069        101698.936
          0.06925       101706.6455
           0.0695       101711.8832
          0.06975       101714.3888
             0.07       101714.1482
          0.07025       101711.3839
           0.0705       101706.5233
          0.07075       101700.1578
            0.071       101692.9911
          0.07125       101685.7702
           0.0715       101679.1991
          0.07175       101673.8657
            0.072       101670.1352
          0.07225       101668.1489
           0.0725       101667.8579
          0.07275        101669.088
            0.073       101671.6278
          0.07325        101675.308
           0.0735       101680.0363
          0.07375       101685.8094
            0.074       101692.6903
          0.07425       101700.7504
           0.0745       101710.0042
          0.07475       101720.3458
            0.075       101731.4931
    0.07524752475       101742.8542
     0.0754950495       101753.9106
    0.07574009901       101763.8765
    0.07598269802       101772.1528
    0.07622529703       101778.3393
    0.07646544554       101782.0776
    0.07670559406       101783.3035
    0.07694329208       101782.0895
     0.0771809901       101778.6629
    0.07741623762       101773.4421
    0.07765148515       101766.8671
    0.07788428218       101759.5801
    0.07811707921        101752.148
    0.07834742574       101745.3193
    0.07857777228       101739.6875
    0.07880566832       101735.9126
    0.07903356436       101734.4429
     0.0792614604       101735.6286
     0.0794868793       101739.5499
    0.07971229821       101746.1113
    0.07993523999       101754.8901
    0.08015818177       101765.4617
    0.08037864642       101777.0978
    0.08059911106       101789.2983
    0.08081709858       101801.3437
     0.0810350861       101812.8766
    0.08125059648       101823.4101
    0.08146365788        101832.744
    0.08167671929        101840.882
    0.08188733171       101847.7087
     0.0820955233       101853.2671
    0.08230371489       101857.6537
    0.08250948565       101860.8423
     0.0827152564       101862.8869
    0.08291860633       101863.7842
    0.08312195625       101863.5852
    0.08332288534       101862.3658
    0.08352381444       101860.2271
    0.08372474353       101857.3165
    0.08392322227       101853.8741
      0.084121701        101850.095
    0.08432017974       101846.2385
    0.08451617749       101842.6155
    0.08471217525       101839.4298
      0.084908173       101836.9225
    0.08510165796       101835.3325
    0.08529514292       101834.8156
    0.08548862789       101835.5383
    0.08568211285       101837.6369
    0.08587301801       101841.1283
    0.08606392317       101846.0365
    0.08625482833       101852.2864
     0.0864457335       101859.6987
     0.0866339872       101867.8754
     0.0868222409       101876.5533
     0.0870104946       101885.2945
     0.0871987483       101893.6138
    0.08738427369       101900.9355
    0.08756979908       101906.9807
    0.08775532446        101911.452
    0.08793808081       101914.1767
    0.08812083716       101915.2566
    0.08830359352       101914.8836
    0.08848634987       101913.3949
    0.08866625065       101911.2486
    0.08884615143       101908.8592
    0.08902605222       101906.6333
      0.089205953       101904.9101
    0.08938290459       101903.9489
    0.08955985618       101903.8515
    0.08973680777       101904.6528
    0.08991375936       101906.3153
    0.09008766006       101908.7227
    0.09026156076       101911.8397
    0.09043546146       101915.6483
    0.09060936216       101920.1759
    0.09078010103       101925.3866
     0.0909508399       101931.4474
    0.09112157877       101938.4408
    0.09129231764       101946.3982
    0.09146305651       101955.2571
    0.09163044756       101964.6502
    0.09179783861       101974.4798
    0.09196522966       101984.3939
    0.09213262071       101993.9905
    0.09230001176       102002.8708
    0.09246740281       102010.6921
    0.09263115492       102017.0823
    0.09279490703       102022.1023
    0.09295865914       102025.7472
    0.09312241126       102028.1161
    0.09328616337       102029.3834
    0.09344601662       102029.7596
    0.09360586988       102029.4787
    0.09376572313       102028.7001
    0.09392557638       102027.5312
    0.09408542964       102026.0259
    0.09424528289       102024.2099
    0.09440513614       102022.0994
    0.09456054903          102019.8
    0.09471596191        102017.328
     0.0948713748       102014.7997
    0.09502678768       102012.3722
    0.09518220057       102010.2291
    0.09533761345       102008.5568
    0.09549302634       102007.5143
    0.09564325879       102007.2058
    0.09579349125       102007.6191
     0.0959437237        102008.718
    0.09609395616       102010.4012
    0.09624418861       102012.5198
    0.09639442107       102014.9028
    0.09654465352       102017.3872
    0.09669488598       102019.8471
    0.09684511844       102022.2171
    0.09699535089       102024.5061
    0.09714558335       102026.7965
     0.0972958158       102029.2311
    0.09744604826       102031.9893
    0.09758793447       102035.0544
    0.09772982067       102038.7094
    0.09787170688       102043.0508
    0.09801359309       102048.1144
     0.0981554793       102053.8669
     0.0982973655       102060.2045
    0.09843925171       102066.9536
    0.09858113792       102073.8844
    0.09872302413       102080.7326
    0.09886491034       102087.2309
    0.09900679654       102093.1363
    0.09914868275        102098.256
    0.09929056896       102102.4674
    0.09943245517       102105.7304
    0.09957434138       102108.0908
    0.09971622758       102109.6743
    0.09985811379       102110.6675
              0.1       102111.2908
     0.1001388889       102111.7587
      0.100277392       102112.2782
     0.1004155103       102112.9987
      0.100553245       102114.0136
     0.1006905971       102115.3453
     0.1008275677       102116.9531
     0.1009641578       102118.7495
     0.1011003684        102120.624
     0.1012362008       102122.4715
     0.1013716558       102124.2135
     0.1015067345       102125.8124
      0.101641438       102127.2762
     0.1017761415       102128.6539
     0.1019104698        102130.005
     0.1020444239       102131.3919
     0.1021780049       102132.8599
     0.1023112138       102134.4225
     0.1024440517       102136.0511
     0.1025765195       102137.6764
     0.1027086183       102139.1997
     0.1028403492       102140.5164
     0.1029717131       102141.5425
     0.1031027111       102142.2422
     0.1032333443        102142.649
     0.1033632516       102142.8759
     0.1034927982       102143.1107
     0.1036219848       102143.5926
     0.1037508127       102144.5801
     0.1038792826       102146.3121
     0.1040073957       102148.9714
      0.104135153       102152.6564
     0.1042625553       102157.3656
     0.1043896038       102162.9956
     0.1045162993       102169.3528
     0.1046426429       102176.1761
     0.1047686356       102183.1655
     0.1048942783       102190.0133
     0.1050195719       102196.4335
     0.1051445176       102202.1846
     0.1052691161       102207.0834
     0.1053933686       102211.0097
     0.1055172759       102213.9079
      0.105640839       102215.7827
     0.1057640589       102216.6917
     0.1058869365       102216.7335
     0.1060094728       102216.0363
     0.1061320091       102214.7475
     0.1062542041       102213.0407
     0.1063760586       102211.1058
     0.1064975738       102209.1451
     0.1066187505       102207.3681
     0.1067395896       102205.9826
     0.1068600921       102205.1837
      0.106980259       102205.1388
     0.1071000912       102205.9702
     0.1072199233       102207.7448
     0.1073394207       102210.4511
     0.1074589182       102214.0201
     0.1075780808       102218.3032
     0.1076969098       102223.1169
     0.1078154058        102228.255
     0.1079339019       102233.5166
     0.1080520651       102238.6948
     0.1081698963       102243.6211
     0.1082873966       102248.1717
     0.1084045669       102252.2814
      0.108521408       102255.9444
     0.1086379209       102259.2014
     0.1087541065       102262.1217
     0.1088699657       102264.7839
     0.1089854995       102267.2602
     0.1091007088       102269.6022
     0.1092159181       102271.8393
     0.1093308028        102273.958
     0.1094453639       102275.9257
     0.1095596023        102277.692
      0.109673519        102279.199
     0.1097871147       102280.3903
     0.1099003904        102281.223
     0.1100136661       102281.6785
     0.1101266219       102281.7683
     0.1102392585       102281.5454
     0.1103518952       102281.0975
     0.1104642128       102280.5389
     0.1105762122       102279.9886
     0.1106882116       102279.5479
     0.1107998928       102279.2839
     0.1109112567         102279.21
     0.1110226207       102279.2821
     0.1111336673       102279.4032
     0.1112443976       102279.4376
     0.1113551279       102279.2314
     0.1114655419       102278.6385
     0.1115756403       102277.5449
     0.1116854242       102275.8894
     0.1117952081       102273.6704
     0.1119046774       102270.9707
     0.1120141467       102267.9308
     0.1121233015       102264.7698
     0.1122324562       102261.7342
     0.1123412964       102259.1102
     0.1124498229       102257.1668
     0.1125583494       102256.1362
     0.1126665623       102256.1986
     0.1127747752       102257.4531
     0.1128826744       102259.9076
     0.1129902608       102263.4776
     0.1130975354       102268.0169
       0.11320481       102273.3462
     0.1133117728       102279.2337
     0.1134187356       102285.4806
     0.1135253865       102291.8762
     0.1136320374       102298.2868
     0.1137383765       102304.5921
     0.1138447155       102310.7606
     0.1139510546       102316.7888
     0.1140570809       102322.6948
     0.1141631072         102328.56
     0.1142688208       102334.4454
     0.1143745343       102340.4474
     0.1144799351       102346.6131
     0.1145850241       102352.9811
     0.1146898021       102359.5562
     0.1147942701       102366.3047
     0.1148987382       102373.1751
     0.1150028962       102380.0422
     0.1151067452       102386.7767
      0.115210286       102393.2381
     0.1153138268       102399.3052
     0.1154170595       102404.8329
     0.1155199849       102409.7191
      0.115622604       102413.8911
     0.1157252231       102417.3171
     0.1158275359       102419.9722
     0.1159295432       102421.8696
     0.1160315506       102423.0418
     0.1161332525       102423.5217
       0.11623465       102423.3534
     0.1163360474       102422.5798
     0.1164371404       102421.2468
     0.1165379297       102419.4039
     0.1166384164        102417.104
     0.1167389031       102414.3888
     0.1168390871       102411.3144
     0.1169389694       102407.9321
     0.1170388517       102404.2873
     0.1171384322       102400.4524
     0.1172380127       102396.4813
     0.1173372914       102392.4524
     0.1174365702       102388.4197
     0.1175355472       102384.4606
     0.1176345242       102380.6257
     0.1177331994       102376.9864
     0.1178318746       102373.5862
     0.1179302481       102370.4824
     0.1180286216       102367.7012
     0.1181266933       102365.2746
     0.1182244642       102363.2128
     0.1183222351       102361.5119
     0.1184197051       102360.1735
     0.1185171751       102359.1868
     0.1186143444       102358.5488
     0.1187115136       102358.2565
     0.1188083819       102358.3207
     0.1189052503       102358.7686
     0.1190018179       102359.6463
     0.1190983854       102361.0239
     0.1191946521       102362.9785
     0.1192906189        102365.592
     0.1193865858       102368.9476
     0.1194825526       102373.1015
     0.1195782186       102378.0586
     0.1196738845       102383.8089
     0.1197692497       102390.2533
     0.1198646148       102397.3099
     0.1199596791       102404.8223
     0.1200547434       102412.6605
     0.1201495069       102420.6358
     0.1202442704       102428.6045
      0.120338733       102436.3739
     0.1204331956       102443.8071
     0.1205273574       102450.7351
     0.1206215192       102457.0581
     0.1207153802        102462.666
     0.1208092412       102467.5241
     0.1209028013        102471.602
     0.1209963614       102474.9328
     0.1210896207       102477.5549
       0.12118288       102479.5509
     0.1212758384       102481.0069
     0.1213687969       102482.0331
     0.1214614545       102482.7339
     0.1215541121       102483.2137
     0.1216464689       102483.5572
     0.1217388257       102483.8302
     0.1218308816       102484.0669
     0.1219226377       102484.2686
     0.1220143938       102484.3997
       0.12210585       102484.3879
     0.1221973063       102484.1316
     0.1222887625       102483.5085
     0.1223799179       102482.3938
     0.1224710733       102480.6638
     0.1225619278       102478.2253
     0.1226527823       102475.0016
     0.1227436369       102470.9682
     0.1228341896       102466.1757
     0.1229247423       102460.7042
      0.123015295       102454.7008
     0.1231055448       102448.3834
     0.1231957947       102441.9696
     0.1232860445       102435.7288
     0.1233762944       102429.9456
     0.1234662393       102424.9127
     0.1235561843       102420.8529
     0.1236461292       102417.9578
     0.1237357683       102416.3542
     0.1238254073       102416.0798
     0.1239150463       102417.1186
     0.1240046853       102419.3858
     0.1240943243        102422.734
     0.1241836542       102426.9553
     0.1242729842       102431.8493
     0.1243623141       102437.2072
      0.124451644       102442.8347
     0.1245409739        102448.561
     0.1246299915       102454.2229
     0.1247190091       102459.7297
     0.1248080266       102465.0053
     0.1248970442       102470.0092
     0.1249857472       102474.7125
     0.1250744502       102479.1354
     0.1251631533         102483.28
     0.1252515406       102487.1276
      0.125339928       102490.6841
     0.1254283153       102493.9447
     0.1255163859       102496.9082
     0.1256044564        102499.618
     0.1256922102       102502.1225
      0.125779964       102504.5105
     0.1258674009        102506.863
     0.1259548379       102509.2756
     0.1260422748       102511.8225
     0.1261293938       102514.5489
     0.1262165128       102517.4991
     0.1263036318       102520.6883
     0.1263907508       102524.1045
     0.1264775495       102527.7132
     0.1265643482       102531.4805
     0.1266511469       102535.3383
     0.1267376242       102539.1866
     0.1268241014       102542.9465
     0.1269105786       102546.5199
     0.1269967332       102549.8053
     0.1270828878       102552.7395
     0.1271687196       102555.2539
     0.1272545515       102557.3211
     0.1273400607        102558.923
     0.1274255699       102560.0826
     0.1275110791       102560.8375
     0.1275962644       102561.2401
     0.1276814497       102561.3534
     0.1277663112       102561.2377
     0.1278511726       102560.9491
      0.127936034        102560.538
     0.1280205702       102560.0514
     0.1281051065       102559.5255
     0.1281896428       102558.9889
     0.1282738527       102558.4598
     0.1283580625       102557.9377
      0.128441946       102557.4098
     0.1285258295       102556.8433
      0.128609713       102556.1942
     0.1286932688       102555.4128
     0.1287768246        102554.441
     0.1288603804       102553.2283
     0.1289439362       102551.7368
     0.1290271617       102549.9564
     0.1291103873       102547.8895
     0.1291936128       102545.5724
     0.1292765068       102543.0805
     0.1293594008       102540.4954
     0.1294422948       102537.9282
     0.1295251887       102535.5035
     0.1296077485       102533.3585
     0.1296903082        102531.606
     0.1297728679       102530.3559
     0.1298554276       102529.6957
     0.1299376504       102529.6829
     0.1300198731        102530.336
     0.1301020959       102531.6391
     0.1301843186       102533.5364
     0.1302662016       102535.9251
     0.1303480846       102538.6907
     0.1304299675       102541.6912
     0.1305118505       102544.7766
     0.1305937335       102547.8006
     0.1306752724       102550.6228
     0.1307568114       102553.1557
     0.1308383503       102555.3359
     0.1309198892       102557.1433
     0.1310010812       102558.5983
     0.1310822732       102559.7792
     0.1311634651       102560.7937
     0.1312446571       102561.7782
     0.1313254991       102562.8794
     0.1314063411       102564.2528
     0.1314871831       102566.0374
     0.1315680251       102568.3498
      0.131648514       102571.2628
      0.131729003       102574.8367
      0.131809492       102579.0813
      0.131889981       102583.9585
     0.1319701138       102589.3549
     0.1320502466       102595.1562
     0.1321303794       102601.1918
     0.1322105123       102607.2684
     0.1322902858       102613.1583
     0.1323700592        102618.691
     0.1324498327       102623.6799
     0.1325296062       102627.9592
     0.1326093797       102631.3942
     0.1326887889       102633.8822
     0.1327681982       102635.4048
     0.1328476074       102635.9793
     0.1329270166       102635.6794
     0.1330064258       102634.6306
     0.1330854657       102633.0089
     0.1331645056       102631.0044
     0.1332435455       102628.8205
     0.1333225854       102626.6525
     0.1334016252       102624.6699
     0.1334802905       102623.0081
     0.1335589558       102621.7334
     0.1336376211       102620.8654
     0.1337162864       102620.3675
     0.1337945735       102620.1522
     0.1338728605       102620.0879
     0.1339511476       102620.0185
     0.1340294347        102619.777
     0.1341077218       102619.1993
     0.1341856251       102618.1526
     0.1342635284       102616.5329
     0.1343414318       102614.2833
     0.1344193351       102611.3992
     0.1344972384       102607.9328
     0.1345751417       102603.9921
     0.1346530451        102599.727
     0.1347305549        102595.338
     0.1348080648       102590.9915
     0.1348855747       102586.8671
     0.1349630846       102583.1218
     0.1350405944       102579.8787
     0.1351181043        102577.223
     0.1351956142       102575.2013
     0.1352731241       102573.8256
     0.1353502281         102573.08
     0.1354273322       102572.9127
     0.1355044362       102573.2612
     0.1355815403       102574.0492
     0.1356586444       102575.1926
     0.1357357484       102576.6181
     0.1358128525       102578.2353
     0.1358899566       102579.9704
     0.1359666416       102581.7671
     0.1360433266       102583.6159
     0.1361200116       102585.5213
     0.1361966966       102587.5066
     0.1362733816       102589.6109
     0.1363500667       102591.8847