# Probe 0 (6 0.005 0.305)
# Probe 1 (6.3 0.005 0.305)
# Probe 2 (6.8 0.005 0.305)
# Probe 3 (8.3 0.005 0.305)
#           Probe                 0                 1                 2                 3
#            Time
    1.1999904e-06            101325            101325            101325            101325
  2.639965056e-06            101325            101325            101325            101325
  4.367944597e-06            101325            101325            101325            101325
  6.441505713e-06            101325            101325            101325            101325
   8.92973777e-06            101325            101325            101325            101325
  1.191552707e-05            101325            101325            101325            101325
  1.549838863e-05            101325            101325            101325            101325
  1.979776087e-05            101325            101325            101325            101325
  2.495674128e-05            101325            101325            101325            101325
  3.114713435e-05            101325            101325            101325            101325
  3.857523794e-05            101325            101325            101325            101325
  4.748896225e-05            101325            101325            101325            101325
  5.818543142e-05            101325            101325            101325            101325
  7.102064463e-05            101325            101325            101325            101325
  8.642131685e-05            101325            101325            101325            101325
  0.0001049009832            101325            101325            101325            101325
  0.0001270765827            101325            101325            101325            101325
  0.0001536896689            101325            101325            101325            101325
  0.0001856219625            101325            101325            101325            101325
  0.0002239407148            101325            101325            101325            101325
  0.0002699019884            101325            101325            101325            101325
  0.0003250351347            101325            101325            101325            101325
  0.0003911802278            101325            101325            101325            101325
  0.0004705543394            101325            101325            101325            101325
  0.0005658032734            101325            101325            101325            101325
  0.0006799700095            101325            101325            101325            101325
  0.0008169700928            101325            101325            101325            101325
  0.0009814618316            101325            101325            101325            101325
   0.001179117227            101325            101325            101325            101325
   0.001416111804            101325            101325            101325            101325
   0.001666544217            101325            101325            101325            101325
   0.001916976631       101324.9999            101325            101325            101325
   0.002167409044       101324.9996            101325            101325            101325
   0.002417841458        101324.999       101324.9999            101325            101325
   0.002668273871       101324.9976       101324.9998            101325            101325
   0.002918706284        101324.995       101324.9995            101325            101325
   0.003169138698       101324.9905       101324.9989            101325            101325
   0.003419571111        101324.984       101324.9977            101325            101325
   0.003670003524       101324.9753       101324.9956       101324.9999            101325
   0.003920435938       101324.9652       101324.9922       101324.9998            101325
   0.004170868351       101324.9548       101324.9872       101324.9995            101325
   0.004421300765       101324.9457       101324.9804       101324.9989            101325
   0.004671733178       101324.9392       101324.9721        101324.998            101325
   0.004922165591       101324.9361        101324.963       101324.9965            101325
   0.005172598005       101324.9362       101324.9541       101324.9941            101325
   0.005423030418       101324.9387       101324.9465       101324.9906            101325
   0.005673462831       101324.9432       101324.9413       101324.9859            101325
   0.005923895245       101324.9501       101324.9392         101324.98            101325
   0.006174327658       101324.9617       101324.9405       101324.9731            101325
   0.006424760072       101324.9829       101324.9453       101324.9657            101325
   0.006675192485       101325.0211       101324.9541       101324.9585            101325
   0.006925624898       101325.0852       101324.9686       101324.9525            101325
   0.007176057312       101325.1873       101324.9925       101324.9486       101324.9999
   0.007426489725       101325.3477       101325.0318       101324.9477       101324.9998
   0.007676922139       101325.5967       101325.0948       101324.9509       101324.9997
   0.007927354552       101325.9765       101325.1932       101324.9593       101324.9995
   0.008177786965        101326.542        101325.345       101324.9745       101324.9992
   0.008428219379       101327.3592       101325.5759       101324.9995       101324.9988
   0.008678651792       101328.5019       101325.9213       101325.0385       101324.9981
   0.008929084205       101330.0437        101326.427       101325.0977        101324.997
   0.009179516619       101332.0485       101327.1473       101325.1865       101324.9956
   0.009429949032        101334.558       101328.1425       101325.3188       101324.9938
   0.009680381446       101337.5785        101329.473       101325.5146       101324.9914
   0.009930813859       101341.0691       101331.1921       101325.8006       101324.9885
    0.01018124627        101344.934       101333.3373       101326.2106       101324.9852
    0.01043167869       101349.0061       101335.9224       101326.7837       101324.9815
     0.0106821111       101353.0279       101338.9236       101327.5635       101324.9779
    0.01093254351       101356.6779       101342.2675       101328.5943       101324.9748
    0.01118297593       101359.6051       101345.8121        101329.918       101324.9728
    0.01143340834       101361.4448       101349.3522       101331.5684       101324.9731
    0.01168384075       101361.8587       101352.6273       101333.5637       101324.9769
    0.01193427317       101360.6073       101355.3561       101335.8947       101324.9859
    0.01218470558        101357.637       101357.2261       101338.5166       101325.0023
    0.01243513799       101353.1352        101357.935       101341.3355       101325.0287
    0.01268557041       101347.5341       101357.2602       101344.2129       101325.0676
    0.01293600282       101341.4695       101355.1186       101346.9749       101325.1233
    0.01318643523       101335.6947       101351.6067       101349.4125       101325.2017
    0.01343686765       101330.9229       101347.0166       101351.2875       101325.3112
    0.01368730006       101327.6833       101341.8174       101352.3654       101325.4633
    0.01393773247       101326.2557       101336.5994       101352.4516       101325.6721
    0.01418816489        101326.673        101331.993       101351.4301       101325.9544
     0.0144385973       101328.8043       101328.5692       101349.2978       101326.3294
    0.01468902971       101332.4673       101326.7406       101346.1866       101326.8173
    0.01493946213       101337.4852       101326.7041       101342.3668       101327.4386
    0.01518989454       101343.6709        101328.456       101338.2307       101328.2124
    0.01544032695       101350.7764       101331.8439       101334.2563       101329.1528
    0.01569075937       101358.4415       101336.6111       101330.9483       101330.2693
    0.01594119178       101366.1477        101342.426       101328.7559       101331.5577
    0.01619162419       101373.2401       101348.9013       101327.9942       101333.0049
    0.01644205661       101378.8111       101355.6166       101328.7888       101334.5769
    0.01669248902       101381.9513       101362.0812       101331.0761        101336.224
    0.01694292143       101381.9884       101367.6706       101334.6407       101337.8772
    0.01719335385       101378.6975       101371.7197        101339.144       101339.4467
    0.01744378626       101372.4641        101373.567       101344.1442        101340.828
    0.01769421867       101364.2721        101372.703        101349.169       101341.9063
    0.01794465109        101355.479       101369.0044       101353.6884       101342.5756
     0.0181950835       101347.4773       101362.8765       101357.1965       101342.7466
    0.01844551591       101341.4038       101355.2204       101359.2547       101342.3688
    0.01869594833       101338.0187       101347.2624       101359.5529       101341.4412
    0.01894638074       101337.7606        101340.327       101357.9823       101340.0189
    0.01919681315        101340.857       101335.6165       101354.6978       101338.2033
    0.01944724557       101347.4298         101334.02       101350.1406       101336.1454
    0.01969767798       101357.4601       101336.0252       101345.0139       101334.0472
    0.01994811039       101370.5578       101341.6385       101340.2105       101332.1308
    0.02019854281       101385.6707       101350.4372       101336.6889        101330.603
    0.02044897522       101400.9462       101361.6682       101335.3251       101329.6326
    0.02069940763       101413.8914       101374.3359       101336.7142       101329.3074
    0.02094984005       101421.8231       101387.2371       101340.9973       101329.6419
    0.02120027246       101422.5952       101398.9581       101347.8679       101330.5649
    0.02145070487       101415.0331       101407.9536       101356.6198       101331.9428
    0.02170113729       101399.8383       101412.4617       101366.2533        101333.596
     0.0219515697       101379.5904       101411.0652       101375.6517       101335.3235
    0.02220200211       101358.1778       101403.0885       101383.7756       101336.9341
    0.02245243453       101339.8249       101388.9577        101389.808       101338.2742
    0.02270286694       101327.9446       101370.4833       101392.9805       101339.2504
    0.02295329935       101324.2139       101350.7205       101392.7048       101339.8454
    0.02320373177        101328.251       101333.2804       101388.6115       101340.1242
    0.02345416418       101337.9701       101321.3404       101380.6907       101340.2122
    0.02370459659       101350.3987       101316.8042        101369.473       101340.3056
    0.02395502901       101362.6064       101319.9512       101356.1239       101340.6381
    0.02420546142       101372.3632       101329.4868       101342.3499       101341.4053
    0.02445589384       101378.5525       101342.8307       101330.1247       101342.7031
    0.02470632625        101381.198       101356.8577       101321.3726       101344.5298
    0.02495675866       101381.1339        101368.781       101317.5681       101346.7874
    0.02520719108          101379.5       101376.8736       101319.2492       101349.2888
    0.02545762349       101377.3317       101380.7126        101325.887       101351.7745
     0.0257080559       101375.3925       101380.9104       101336.0173       101353.9386
    0.02595848832       101374.2085       101378.6909       101347.6133       101355.4441
    0.02620892073       101374.1498       101375.4367       101358.6173       101356.0594
    0.02645935314        101375.471       101372.3234       101367.3732       101355.6982
    0.02670978556       101378.2976       101370.1287       101372.9867       101354.4253
    0.02696021797       101382.5667       101369.2202       101375.3227       101352.3792
    0.02721065038       101387.9636       101369.6645       101374.9454       101349.7377
     0.0274610828       101393.9307       101371.3689        101372.772       101346.7155
    0.02771151521       101399.6308       101374.2187       101369.7616       101343.5548
    0.02796194762       101404.0883       101378.0062       101366.7241       101340.5081
    0.02821238004       101406.4386       101382.3674       101364.2431       101337.8432
    0.02846281245       101406.1873       101386.7439       101362.6824       101335.7622
    0.02871324486       101403.3749       101390.4527        101362.229       101334.3532
    0.02896367728       101398.5687       101392.8646       101362.9524       101333.6516
    0.02921410969       101392.6752       101393.5663       101364.8117       101333.6909
     0.0294645421       101386.6483       101392.4347       101367.6301       101334.5043
    0.02971497452       101381.2571       101389.6508       101371.0564       101336.1102
    0.02996540693       101376.9479       101385.6531       101374.5723       101338.4785
    0.03021583934       101373.8159       101381.0339       101377.5836       101341.5412
    0.03046627176       101371.7138       101376.3959       101379.5522       101345.0438
    0.03071670417        101370.416        101372.223       101380.0864       101348.6354
    0.03096713658       101369.7453       101368.8101       101379.0143       101351.9176
      0.031217569       101369.6303       101366.2715       101376.4286       101354.5013
    0.03146800141       101370.1016       101364.6035       101372.6755       101356.0909
    0.03171843382       101371.2486       101363.7552       101368.2825       101356.5147
    0.03196886624        101373.156       101363.6973       101363.8483       101355.7518
    0.03221929865       101375.8394       101364.4181       101359.9313        101353.956
    0.03246973106       101379.1972       101365.9029       101356.9599       101351.4556
    0.03272016348        101382.993       101368.0972       101355.2232       101348.6929
    0.03297059589       101386.8763       101370.8702       101354.8087       101346.1847
     0.0332210283       101390.4355       101373.9964       101355.6154       101344.3878
    0.03347146072       101393.2615       101377.1691       101357.3983       101343.6282
    0.03372189313       101395.0781       101380.0419       101359.8212       101344.0626
    0.03397232554       101395.7348       101382.2854       101362.5106       101345.6562
    0.03422275796       101395.2353       101383.6498       101365.1045       101348.2195
    0.03447319037        101393.757       101384.0394       101367.2896       101351.3541
    0.03472362278       101391.6433       101383.4749       101368.8582       101354.5549
     0.0349740552       101389.3692        101382.074       101369.6938        101357.299
    0.03522448761       101387.4777       101380.0855        101369.766       101359.1387
    0.03547492002       101386.4816        101377.925       101369.1192       101359.7946
    0.03572535244       101386.7543       101376.1275       101367.8871        101359.205
    0.03597578485       101388.4742       101375.2216       101366.3151       101357.5285
    0.03622621726       101391.6047        101375.607        101364.752       101355.1034
    0.03647664968       101395.8691       101377.4802       101363.5962       101352.3417
    0.03672708209       101400.7753       101380.9157       101363.2054       101349.6428
     0.0369775145       101405.7071       101385.7014       101363.8262       101347.3343
    0.03722794692       101410.0154       101391.3526       101365.5973        101345.627
    0.03747837933       101413.1173       101397.2279         101368.56       101344.5867
    0.03772881174        101414.623       101402.6351       101372.5663        101344.138
    0.03797924416       101414.4442       101406.9196       101377.2972       101344.1042
    0.03822967657       101412.8278       101409.5575        101382.311       101344.2658
    0.03848010898       101410.2877       101410.2499       101387.1036       101344.4291
     0.0387305414       101407.4377       101408.9909       101391.1806       101344.4789
    0.03898097381       101404.8431       101406.0605       101394.1327       101344.4026
    0.03923140622       101402.7961       101402.0263       101395.6887       101344.2851
    0.03948183864       101401.2554       101397.5402       101395.7383        101344.282
    0.03973227105       101399.9203       101393.1956       101394.3695       101344.5837
    0.03998270346       101398.3901        101389.418       101391.7983       101345.3591
    0.04023313588       101396.3366       101386.3953       101388.3391       101346.7193
    0.04048356829        101393.618       101384.0716       101384.3764       101348.6572
     0.0407340007       101390.2994       101382.2122       101380.3233       101351.1172
    0.04098443312       101386.6001        101380.516       101376.5655       101353.9704
    0.04123486553       101382.8206        101378.734       101373.3985       101357.0019
    0.04148529795       101379.2981       101376.7501       101370.9775        101359.946
    0.04173573036       101376.3955       101374.6061        101369.298       101362.5439
    0.04198616277       101374.5097       101372.4744       101368.2149       101364.5903
    0.04223659519       101374.0572        101370.608       101367.4965       101365.9597
     0.0424870276       101375.3509       101369.3313       101366.8924       101366.5966
    0.04273746001       101378.5089       101368.9507       101366.2016       101366.5496
    0.04298789243       101383.4158       101369.6996       101365.3235       101365.9186
    0.04323832484       101389.7373       101371.7351       101364.2823       101364.8571
    0.04348875725       101396.9778       101375.1052       101363.2194       101363.5237
    0.04373918967       101404.5551       101379.6865       101362.3507        101362.053
    0.04398962208       101411.8586       101385.1541       101361.9246       101360.5503
    0.04424005449       101418.2796       101391.0217       101362.1795        101359.103
    0.04449048691       101423.2222       101396.7426       101363.2979       101357.7702
    0.04474091932       101426.2586       101401.8752       101365.3625       101356.5648
    0.04499135173       101427.1146       101406.0593       101368.3252       101355.5008
    0.04524178415       101425.7832       101409.0476       101372.0065       101354.5619
    0.04549221656       101422.6097       101410.7052       101376.1273       101353.7093
    0.04574264897       101418.2408       101410.9855       101380.3651        101352.902
    0.04599308139       101413.4648       101409.9305       101384.4161       101352.1117
     0.0462435138       101409.0229       101407.7019        101388.039       101351.3286
    0.04649394621        101405.492       101404.6155       101391.0659       101350.5595
    0.04674437863       101403.2797       101401.1428       101393.3827       101349.7964
    0.04699481104        101402.709        101397.866       101394.8997       101349.0487
    0.04724524345       101404.0945       101395.3987       101395.5366       101348.3449
    0.04749567587       101407.7489       101394.2939       101395.2413        101347.725
    0.04774610828       101413.7915       101394.9642        101394.039       101347.2408
    0.04799654069       101421.9142       101397.6109       101392.0917        101346.957
    0.04824697311        101431.226       101402.2124       101389.7317       101346.9492
    0.04849740552       101440.2717       101408.4268       101387.4408       101347.2951
    0.04874783793       101447.2734       101415.5898        101385.768       101348.0623
    0.04899827035       101450.5539       101422.7738       101385.2029       101349.2939
    0.04924870276       101449.0187       101428.8942       101386.0568       101350.9766
    0.04949913517       101442.5212       101432.8682       101388.4004       101353.0478
    0.04974956759       101431.9652       101433.8154       101391.9798       101355.4176
             0.05       101419.1176       101431.2506        101396.282       101357.9599
          0.05025       101406.1692       101425.2295       101400.6474       101360.5263
           0.0505       101395.0904       101416.3892       101404.4042       101362.9501
          0.05075       101387.2812       101405.7332       101406.9289       101365.0716
            0.051       101383.3554       101394.4906       101407.7657       101366.7591
          0.05125         101383.17       101383.9864       101406.6009       101367.9259
           0.0515       101386.0183       101375.5006       101403.3084       101368.5384
          0.05175       101390.8788       101370.1087       101397.9969       101368.6198
            0.052       101396.6159       101368.5081       101391.0409       101368.2467
          0.05225       101402.2903       101370.8496        101383.091       101367.5454
           0.0525       101407.1661       101376.6249       101375.0446       101366.6846
          0.05275       101410.8485       101384.6566       101367.9558       101365.8518
            0.053       101413.3541       101393.3526       101362.8902       101365.2312
          0.05325       101415.0375       101401.0007       101360.7189       101364.9802
           0.0535        101416.386       101406.2198        101361.884       101365.2012
          0.05375       101417.8242       101408.3835       101366.1907       101365.9153
            0.054       101419.5823       101407.8017        101372.823       101367.0459
          0.05425       101421.7026       101405.5595       101380.3769       101368.4234
           0.0545       101424.1399       101403.1931       101387.1878       101369.8121
          0.05475       101426.8773       101402.1127       101391.8031       101370.9341
            0.055       101429.9837       101403.1881       101393.4148       101371.5009
          0.05525       101433.6541       101406.5932       101392.1704       101371.2902
           0.0555       101437.8661       101411.9282       101389.0926       101370.1639
          0.05575       101442.2826       101418.4601       101385.7701       101368.0929
            0.056       101446.3014       101425.3681       101383.8688       101365.1769
          0.05625       101449.2932       101431.8612       101384.6204       101361.6437
           0.0565       101450.8341       101437.0759       101388.4557       101357.8206
          0.05675       101450.7746       101440.3298       101394.8898       101354.1275
            0.057       101449.1213       101441.3478       101402.7609       101351.0406
          0.05725       101445.8489       101440.2577       101410.5793       101348.9586
           0.0575        101440.806       101437.3967       101416.9039       101348.1538
          0.05775       101433.8269       101433.0828       101420.7911       101348.6949
            0.058       101424.9513       101427.4779       101422.0077       101350.4651
          0.05825       101414.6356       101420.5867       101420.9578       101353.1541
           0.0585       101403.8211       101412.3808       101418.3456       101356.3317
          0.05875          101393.8       101403.0071       101414.8402       101359.5088
            0.059        101385.973       101392.9943       101410.8392       101362.2174
          0.05925       101381.5961       101383.3384       101406.3792       101364.1117
           0.0595       101381.5835       101375.3886       101401.2059       101365.0616
          0.05975       101386.3492       101370.5531        101394.985       101365.2019
             0.06       101395.6986       101369.9239       101387.5804       101364.8805
          0.06025       101408.7793       101373.9508       101379.2913       101364.5694
           0.0605       101424.0695       101382.2919       101370.9492       101364.7553
          0.06075       101439.6107       101393.8469       101363.8187       101365.7988
            0.061       101453.4833       101407.1426       101359.3039       101367.8771
          0.06125       101464.2905       101420.5062       101358.5373       101370.9546
           0.0615       101471.4443       101432.4602       101362.0008       101374.7147
          0.06175       101475.1426       101442.0573       101369.3161       101378.6574
            0.062       101476.1623       101448.9733       101379.4053       101382.1488
          0.06225       101475.4276       101453.4988       101390.7205       101384.6019
           0.0625       101473.6112       101456.1418       101401.6995       101385.5487
          0.06275       101471.0151       101457.3807        101411.185       101384.7192
            0.063       101467.5955       101457.5265       101418.7245       101382.0754
          0.06325       101463.1505        101456.623       101424.4196       101377.8223
           0.0635       101457.5656       101454.4609       101428.7064        101372.313
          0.06375       101450.9861       101450.7509       101432.0638       101366.0535
            0.064       101443.8366       101445.3775       101434.7231       101359.6481
          0.06425       101436.7123       101438.5967       101436.5348       101353.7183
           0.0645       101430.2332       101431.0545       101437.0414       101348.8562
          0.06475       101424.9533       101423.6183       101435.7079       101345.5437
            0.065       101421.3363       101417.1136       101432.1991        101344.106
          0.06525       101419.7465       101412.1115       101426.5896       101344.6676
           0.0655       101420.3919       101408.8555         101419.42        101347.152
          0.06575       101423.2217       101407.3319       101411.5832       101351.3312
            0.066       101427.8439       101407.4086       101404.0926       101356.7765
          0.06625       101433.5532       101408.9462       101397.8221       101362.9737
           0.0665       101439.5424       101411.8297       101393.3138       101369.4014
          0.06675         101445.19       101415.9197       101390.7153       101375.5835
            0.067       101450.2457       101420.9766        101389.857       101381.1373
          0.06725       101454.7984       101426.6344       101390.4182       101385.8101
           0.0675       101459.0652       101432.4494       101392.0944       101389.4786
          0.06775       101463.1389       101437.9821       101394.6842       101392.1102
            0.068       101466.8044       101442.8657       101398.0819       101393.7041
          0.06825       101469.6286       101446.8373       101402.1974       101394.2533
           0.0685       101471.2276       101449.7308       101406.8536       101393.7345
          0.06875       101471.5446       101451.4506       101411.7204       101392.1454
            0.069       101470.9481        101451.993       101416.3339       101389.5273
          0.06925       101470.0836       101451.5245       101420.2038       101386.0017
    0.06949798387       101469.5794       101450.4473       101422.9422       101381.8102
         0.069742       101469.7715       101449.3326       101424.4331       101377.3164
      0.069984064       101470.6721       101448.7129       101424.8549       101372.8698
    0.07022419149       101472.1828       101448.9277       101424.5733        101368.846
    0.07046239796       101474.2038       101450.0046       101424.0739       101365.5757
    0.07069869877       101476.7086        101451.687       101423.8437       101363.2856
    0.07093310918       101479.6405       101453.5819        101424.257       101362.0838
    0.07116751959        101482.676        101455.348       101425.5031       101361.9604
     0.0714000396        101484.945       101456.7582       101427.5151       101362.8197
    0.07163068444       101485.2835       101457.7569       101429.9954       101364.4943
    0.07186132928       101482.5695       101458.3597       101432.5032       101366.8045
    0.07209009896        101476.386       101458.5013       101434.5037       101369.5266
    0.07231886864        101467.441       101457.9652       101435.5725       101372.4795
    0.07254576316       101457.8554       101456.4379       101435.4619       101375.4493
    0.07277079789       101450.4699       101453.6819       101434.2111       101378.2908
    0.07299583262       101447.9252       101449.7731       101432.0872       101380.9023
    0.07321900755       101451.7095       101445.4326       101429.5485       101383.1515
    0.07344033807        101461.297        101441.908       101427.0714       101384.9563
    0.07366166859       101474.6974       101440.6328       101425.0229        101386.276
    0.07388115468       101488.5896       101442.7372        101423.651       101387.0765
    0.07409881173       101499.8346       101448.5149       101423.0314       101387.3877
    0.07431646877       101506.4397       101457.3517       101423.1554       101387.2791
    0.07453229676       101507.8887       101467.8474       101424.0034       101386.8546
    0.07474812476       101505.2312       101478.1585       101425.6029       101386.2307
     0.0749621237       101500.4037       101486.2567       101428.0104       101385.5499
    0.07517430909       101495.4209       101490.8216       101431.2979       101384.9361
    0.07538649448       101491.6384       101491.4593       101435.5362       101384.4693
    0.07559686633       101489.5151       101488.6348       101440.5631       101384.1933
    0.07580723817       101488.5547       101483.3911       101446.0177       101384.1034