# Probe 0 (6 0.005 0.305)
# Probe 1 (6.3 0.005 0.305)
# Probe 2 (6.8 0.005 0.305)
# Probe 3 (8.3 0.005 0.305)
#           Probe                 0                 1                 2                 3
#            Time
    1.1999904e-06            101325            101325            101325            101325
  2.639965056e-06            101325            101325            101325            101325
  4.367944597e-06            101325            101325            101325            101325
  6.441505713e-06            101325            101325            101325            101325
   8.92973777e-06            101325            101325            101325            101325
  1.191552707e-05            101325            101325            101325            101325
  1.549838863e-05            101325            101325            101325            101325
  1.979776087e-05            101325            101325            101325            101325
  2.495674128e-05            101325            101325            101325            101325
  3.114713435e-05            101325            101325            101325            101325
  3.857523794e-05            101325            101325            101325            101325
  4.748896225e-05            101325            101325            101325            101325
  5.818543142e-05            101325            101325            101325            101325
  7.102064463e-05            101325            101325            101325            101325
  8.642131685e-05            101325            101325            101325            101325
  0.0001049009832            101325            101325            101325            101325
  0.0001270765827            101325            101325            101325            101325
  0.0001536896689            101325            101325            101325            101325
  0.0001856219625            101325            101325            101325            101325
  0.0002239407148            101325            101325            101325            101325
  0.0002699019884            101325            101325            101325            101325
  0.0003250351347            101325            101325            101325            101325
  0.0003911802278            101325            101325            101325            101325
  0.0004705543394            101325            101325            101325            101325
  0.0005658032734            101325            101325            101325            101325
  0.0006799700095            101325            101325            101325            101325
  0.0008169700928            101325            101325            101325            101325
  0.0009814618316            101325            101325            101325            101325
   0.001179117227            101325            101325            101325            101325
   0.001416111804            101325            101325            101325            101325
   0.001666544217            101325            101325            101325            101325
   0.001916976631       101324.9999            101325            101325            101325
   0.002167409044       101324.9996            101325            101325            101325
   0.002417841458        101324.999       101324.9999            101325            101325
   0.002668273871       101324.9976       101324.9998            101325            101325
   0.002918706284        101324.995       101324.9995            101325            101325
   0.003169138698       101324.9905       101324.9989            101325            101325
   0.003419571111        101324.984       101324.9977            101325            101325
   0.003670003524       101324.9753       101324.9956       101324.9999            101325
   0.003920435938       101324.9652       101324.9922       101324.9998            101325
   0.004170868351       101324.9548       101324.9872       101324.9995            101325
   0.004421300765       101324.9457       101324.9804       101324.9989            101325
   0.004671733178       101324.9392       101324.9721        101324.998            101325
   0.004922165591       101324.9361        101324.963       101324.9965            101325
   0.005172598005       101324.9362       101324.9541       101324.9941            101325
   0.005423030418       101324.9387       101324.9465       101324.9906            101325
   0.005673462831       101324.9432       101324.9413       101324.9859            101325
   0.005923895245       101324.9501       101324.9392         101324.98            101325
   0.006174327658       101324.9617       101324.9405       101324.9731            101325
   0.006424760072       101324.9828       101324.9453       101324.9657            101325
   0.006675192485        101325.021       101324.9541       101324.9585            101325
   0.006925624898       101325.0849       101324.9686       101324.9525            101325
   0.007176057312       101325.1869       101324.9924       101324.9486       101324.9999
   0.007426489725        101325.347       101325.0317       101324.9477       101324.9998
   0.007676922139       101325.5954       101325.0946       101324.9509       101324.9997
   0.007927354552       101325.9742       101325.1928       101324.9592       101324.9995
   0.008177786965       101326.5382       101325.3442       101324.9744       101324.9992
   0.008428219379       101327.3531       101325.5745       101324.9994       101324.9988
   0.008678651792       101328.4924       101325.9191       101325.0383       101324.9981
   0.008929084205       101330.0292       101326.4233       101325.0974        101324.997
   0.009179516619       101332.0272       101327.1415        101325.186       101324.9956
   0.009429949032       101334.5273       101328.1337        101325.318       101324.9938
   0.009680381446       101337.5354       101329.4598       101325.5133       101324.9914
   0.009930813859       101341.0101       101331.1729       101325.7986       101324.9885
    0.01018124627       101344.8557       101333.3099       101326.2073       101324.9852
    0.01043167869       101348.9052       101335.8843       101326.7787       101324.9815
     0.0106821111       101352.9013       101338.8719        101327.556       101324.9779
    0.01093254351       101356.5237       101342.1991       101328.5833       101324.9748
    0.01118297593       101359.4215       101345.7236       101329.9021       101324.9728
    0.01143340834       101361.2296       101349.2406       101331.5462       101324.9731
    0.01168384075       101361.6067       101352.4903       101333.5332       101324.9768
    0.01193427317       101360.3115       101355.1911       101335.8535       101324.9858
    0.01218470558       101357.2905       101357.0301       101338.4622       101325.0022
    0.01243513799       101352.7334       101357.7046       101341.2651       101325.0285
    0.01268557041       101347.0758       101356.9916       101344.1239       101325.0674
    0.01293600282        101340.957        101354.808       101346.8646       101325.1229
    0.01318643523       101335.1341       101351.2507        101349.278       101325.2011
    0.01343686765       101330.3209       101346.6135       101351.1261       101325.3103
    0.01368730006        101327.047       101341.3673       101352.1744        101325.462
    0.01393773247       101325.5911       101336.1054       101352.2286       101325.6701
    0.01418816489       101325.9827       101331.4609       101351.1727       101325.9515
     0.0144385973       101328.0879       101328.0047       101349.0041       101326.3251
    0.01468902971       101331.7235       101326.1477       101345.8553       101326.8113
    0.01493946213       101336.7075       101326.0851       101341.9977       101327.4303
    0.01518989454       101342.8414       101327.8131       101337.8249       101328.2009
    0.01544032695        101349.868       101331.1782       101333.8165       101329.1372
    0.01569075937       101357.4319       101335.9194       101330.4787       101330.2485
    0.01594119178       101365.0424       101341.6977       101328.2617       101331.5304
    0.01619162419       101372.0834       101348.1198       101327.4802       101332.9696
    0.01644205661       101377.6815       101354.7616       101328.2564        101334.532
    0.01669248902       101380.9341       101361.1443       101330.5236       101336.1676
    0.01694292143       101381.1257       101366.6602       101334.0647       101337.8075
    0.01719335385       101377.9392        101370.665       101338.5378       101339.3615
    0.01744378626       101371.6535       101372.5123       101343.4958       101340.7253
    0.01769421867       101363.1891       101371.6901       101348.4628       101341.7842
    0.01794465109       101353.9331       101368.0455       101352.9112       101342.4321
     0.0181950835       101345.4089       101361.9326       101356.3434       101342.5803
    0.01844551591       101338.9344       101354.2009       101358.3348       101342.1789
    0.01869594833       101335.4111       101346.0535       101358.5897       101341.2272
    0.01894638074       101335.2956       101338.8402       101357.0071       101339.7811
    0.01919681315       101338.6747       101333.8328       101353.7376       101337.9415
    0.01944724557       101345.4265       101332.0027        101349.205       101335.8609
    0.01969767798       101355.3029       101333.8913       101344.0866       101333.7427
    0.01994811039       101367.8384       101339.4852       101339.2485       101331.8087
    0.02019854281       101382.1391       101348.2635       101335.6325       101330.2664
    0.02044897522       101396.7058       101359.3508       101334.1137       101329.2819
    0.02069940763       101409.4367       101371.6866       101335.3058       101328.9424
    0.02094984005       101417.8969       101384.1206       101339.3792         101329.26
    0.02120027246       101419.9098       101395.4114        101346.049       101330.1608
    0.02145070487       101414.0165       101404.2466       101354.6111       101331.5102
    0.02170113729       101400.4402        101409.073       101364.0535       101333.1294
     0.0219515697       101381.2595       101408.5458       101373.2486       101334.8192
    0.02220200211       101360.0152       101401.8785       101381.1677       101336.3898
    0.02245243453       101340.8417       101389.1949       101387.0351       101337.6902
    0.02270286694       101327.3209       101371.8876       101390.1672       101338.6291
    0.02295329935       101321.4757       101352.6153       101390.0783       101339.1918
    0.02320373177       101323.3272       101334.7514       101386.4741        101339.445
    0.02345416418       101331.1728       101321.4794       101379.3384       101339.5159
    0.02370459659       101342.3329       101314.9472       101369.0825       101339.5962
    0.02395502901        101353.997       101315.8363       101356.6517       101339.9132
    0.02420546142       101363.9884       101323.3401       101343.4873       101340.6559
    0.02445589384       101371.0945       101335.2368       101331.3238       101341.9148
    0.02470632625       101375.0426       101348.6303        101321.951       101343.6824
    0.02495675866       101376.2938       101360.7798       101316.9039       101345.8563
    0.02520719108       101375.6879       101369.7927       101316.9057       101348.2494
    0.02545762349       101374.0363       101374.9249       101321.7488       101350.6073
     0.0257080559       101372.0999       101376.4333       101330.3341       101352.6374
    0.02595848832       101370.5417       101375.2393        101340.912       101354.0181
    0.02620892073       101369.9135       101372.5378       101351.5567       101354.5314
    0.02645935314       101370.6646       101369.4757       101360.6169        101354.107
    0.02670978556       101373.0705       101366.9509       101367.0296       101352.8255
    0.02696021797       101377.1293       101365.5418       101370.4649       101350.8405
    0.02721065038       101382.5237       101365.5351       101371.2194       101348.3392
     0.0274610828       101388.5738       101367.0035       101370.0022       101345.5358
    0.02771151521       101394.3369       101369.8428       101367.6432       101342.6594
    0.02796194762       101398.8004       101373.7576       101364.9095       101339.9276
    0.02821238004       101401.1116       101378.2371       101362.4087       101337.5423
    0.02846281245        101400.786       101382.5941       101360.5704       101335.6475
    0.02871324486        101397.834       101386.0967       101359.6712       101334.2781
    0.02896367728       101392.7611       101388.1438       101359.8753       101333.4177
    0.02921410969       101386.4377       101388.3907        101361.223       101333.0842
     0.0294645421       101379.8679       101386.7952       101363.5926       101333.3342
    0.02971497452       101373.9334       101383.6094       101366.6541        101334.248
    0.02996540693       101369.2488       101379.3184       101369.8902       101335.8869
    0.03021583934       101366.0145       101374.5323       101372.7071       101338.2487
    0.03046627176        101364.067       101369.8521       101374.5664       101341.2469
    0.03071670417       101363.0402        101365.742       101375.0716       101344.6015
    0.03096713658       101362.5581       101362.4572       101374.0431       101347.9384
      0.031217569       101362.3854       101360.0484        101371.561         101350.84
    0.03146800141       101362.4956       101358.4339       101367.9483       101352.9408
    0.03171843382       101363.0499       101357.4988        101363.693       101353.9745
    0.03196886624       101364.2997       101357.1723       101359.3419       101353.8177
    0.03221929865       101366.4512       101357.4626       101355.4019       101352.5198
    0.03246973106       101369.5392       101358.4371       101352.2678       101350.3173
    0.03272016348       101373.3591       101360.1586       101350.2228        101347.608
    0.03297059589       101377.4817       101362.6046       101349.3862       101344.9088
     0.0332210283       101381.3467       101365.6092       101349.7202       101342.7423
    0.03347146072       101384.3906       101368.8535       101351.0569        101341.527
    0.03372189313       101386.2288       101371.9122       101353.1336       101341.5083
    0.03397232554         101386.68       101374.3433       101355.6291       101342.7221
    0.03422275796       101385.7931       101375.7805       101358.1989        101345.001
    0.03447319037       101383.8126       101376.0906       101360.5106       101348.0116
    0.03472362278       101381.1451       101375.3049       101362.2843        101351.231
     0.0349740552       101378.3221       101373.5802       101363.3245       101354.0906
    0.03522448761       101375.9426       101371.2189       101363.5321       101356.0918
    0.03547492002        101374.578       101368.6936       101362.8987       101356.8975
    0.03572535244       101374.6378       101366.5808       101361.5307       101356.3986
    0.03597578485       101376.3143       101365.4233       101359.6816       101354.7274
    0.03622621726       101379.5112       101365.5895       101357.7424       101352.2184
    0.03647664968       101383.8843       101367.2177       101356.1731       101349.3007
    0.03672708209       101388.8988        101370.402       101355.3974       101346.4029
     0.0369775145        101393.933       101374.9517       101355.7057       101343.8829
    0.03722794692       101398.3701       101380.4192       101357.2318        101341.978
    0.03747837933       101401.6886       101386.2036       101360.0007       101340.7758
    0.03772881174        101403.556       101391.6456       101363.8472       101340.2133
    0.03797924416       101403.8796        101396.116       101368.4493       101340.1205
    0.03822967657       101402.7896       101399.1095       101373.3797       101340.2673
    0.03848010898       101400.5681       101400.3266       101378.1577       101340.4393
     0.0387305414       101397.5494       101399.7163       101382.3118       101340.4989
    0.03898097381       101394.0873       101397.4545       101385.4492       101340.4141
    0.03923140622       101390.4784       101393.8762       101387.3048       101340.2545
    0.03948183864       101386.9377        101389.412       101387.7425       101340.1667
    0.03973227105       101383.6033       101384.4822       101386.8177       101340.3388
    0.03998270346       101380.5293       101379.4469       101384.6826       101340.9499
    0.04023313588       101377.6632       101374.6019       101381.5654       101342.1323
    0.04048356829       101374.8432       101370.1874       101377.7532       101343.8979
     0.0407340007       101371.8517       101366.3799       101373.5561       101346.2011
    0.04098443312       101368.5367       101363.2659       101369.2653       101348.9234
    0.04123486553       101364.9543       101360.8236       101365.1231        101351.862
    0.04148529795       101361.4489       101358.9386       101361.3128       101354.7518
    0.04173573036       101358.6044       101357.4613       101357.9655       101357.3291
    0.04198616277       101357.1112       101356.2838       101355.1756       101359.3831
    0.04223659519       101357.4822       101355.4125       101353.0094       101360.7825
     0.0424870276       101359.8845       101355.0365       101351.4973       101361.4694
    0.04273746001       101364.1599       101355.3792       101350.6143       101361.4904
    0.04298789243       101369.9508       101356.6452       101350.2829       101360.9442
    0.04323832484       101376.8162       101358.9887       101350.3805       101359.9803
    0.04348875725       101384.2665       101362.4748       101350.7401       101358.7508
    0.04373918967       101391.7277       101367.0414       101351.2242       101357.3787
    0.04398962208       101398.5086       101372.4771       101351.7996       101355.9489
    0.04424005449         101403.85       101378.4145       101352.5619       101354.5183
    0.04449048691       101407.0742       101384.3293       101353.7021       101353.1118
    0.04474091932       101407.8025       101389.6032       101355.4566       101351.7103
    0.04499135173       101406.1461       101393.5953       101358.0016       101350.2999
    0.04524178415       101402.6199       101395.7368       101361.3748       101348.8695
    0.04549221656       101398.0148       101395.7191       101365.4269       101347.4131
    0.04574264897       101393.1978       101393.6294        101369.819       101345.9351
    0.04599308139       101388.9066       101389.9797       101374.0684       101344.4736
     0.0462435138       101385.6156       101385.6055       101377.6431       101343.1033
    0.04649394621        101383.507       101381.4474       101380.0853       101341.9138
    0.04674437863       101382.5443       101378.2896       101381.1309       101340.9823
    0.04699481104       101382.5923       101376.5536       101380.7871       101340.3479
    0.04724524345       101383.4386       101376.2343       101379.3374       101340.0098
    0.04749567587       101384.8337       101377.0235       101377.2639       101339.9363
    0.04774610828       101386.5516        101378.401       101375.1104       101340.0786
    0.04799654069       101388.4384       101379.8693       101373.3266       101340.3918
    0.04824697311        101390.437       101381.1469       101372.1486       101340.8482
    0.04849740552       101392.5892       101382.2183       101371.5587       101341.4536
    0.04874783793       101395.0148       101383.2499       101371.3394       101342.2497
    0.04899827035       101397.8627       101384.4816       101371.1931       101343.3017
    0.04924870276       101401.2383       101386.0819       101370.8853       101344.6733
    0.04949913517       101405.1254       101388.1244       101370.3559       101346.3758
    0.04974956759       101409.3319       101390.5736       101369.7499       101348.3793
             0.05       101413.4782       101393.3007       101369.3581       101350.5977
          0.05025       101417.0216       101396.1359       101369.5031       101352.8794
           0.0505       101419.3334       101398.9137       101370.4312        101355.036
          0.05075       101419.7451       101401.4427       101372.2145       101356.8672
            0.051       101417.6391       101403.4694       101374.7377       101358.2083
          0.05125        101412.554       101404.6466       101377.7572       101358.9658
           0.0515       101404.3761       101404.5303       101380.9826       101359.1335
          0.05175       101393.4416       101402.6226       101384.1426       101358.7861
            0.052       101380.6634       101398.4813       101386.9943       101358.0531
          0.05225       101367.5084       101391.8637       101389.2959       101357.0872
           0.0525       101355.8147       101382.8137       101390.7594       101356.0317
          0.05275       101347.4304       101371.8283       101391.0224        101354.999
            0.053       101343.7574       101359.9546       101389.6663        101354.066
          0.05325        101345.353       101348.7388       101386.2903       101353.2838
           0.0535       101351.7455        101339.995       101380.6421       101352.6862
          0.05375       101361.5628       101335.4112       101372.7701       101352.2965
            0.054       101372.9561       101336.0817       101363.1431       101352.1556
          0.05425       101384.0971        101342.159       101352.6882       101352.3115
           0.0545       101393.6432       101352.7222       101342.7173       101352.8203
          0.05475       101401.0055       101365.8787       101334.7412       101353.7168
            0.055       101406.3274       101379.3028       101330.2064       101354.9913
          0.05525       101410.2126       101390.8903       101330.1425       101356.5778
           0.0555       101413.3491         101399.32       101334.8198       101358.3503
          0.05575       101416.1784       101404.3292       101343.6372       101360.1282
            0.056       101418.7796       101406.6168       101355.2087       101361.6886
          0.05625       101420.8557       101407.4116       101367.6573        101362.795
           0.0565       101421.9015       101408.0182       101379.0613       101363.2285
          0.05675       101421.5031       101409.1753       101387.9307       101362.8038
            0.057       101419.4262       101410.8378       101393.5365       101361.3964
          0.05725       101415.6956       101412.3373       101396.1233       101358.9678
           0.0575       101410.5136       101412.7301       101396.5772       101355.5722
          0.05775       101404.1383       101411.1916       101396.0462        101351.352
            0.058       101396.8531       101407.1713       101395.5315       101346.5646
          0.05825       101388.9681       101400.5812        101395.519       101341.5998
           0.0585       101380.9043       101391.9019       101395.8127       101336.9361
          0.05875       101373.2645       101382.0345       101395.6705       101333.0933
            0.059       101366.8053       101372.0643       101394.1447       101330.5648
          0.05925       101362.2981       101363.0384        101390.466       101329.7429
           0.0595       101360.3347       101355.8258       101384.4036       101330.8505
          0.05975       101361.1555       101351.0508       101376.4164       101333.9047
             0.06       101364.5855       101349.0604       101367.5313       101338.6855
          0.06025       101370.1656       101349.9046       101359.0269       101344.7614
           0.0605       101377.2468       101353.3441       101352.0713       101351.5389
          0.06075       101385.2223       101358.9101       101347.4385       101358.3274
            0.061       101393.6623       101366.0085       101345.3758       101364.4446
          0.06125       101402.3586       101374.0769       101345.6363       101369.3295
           0.0615       101411.1588        101382.651       101347.6498       101372.6282
          0.06175       101419.7897       101391.4167       101350.7664       101374.2234
            0.062       101427.7848       101400.1736       101354.4859       101374.2097
          0.06225       101434.4725       101408.6873       101358.5992       101372.8326
           0.0625       101439.1084       101416.6711       101363.1997       101370.4177
          0.06275       101441.0685       101423.5387       101368.5636       101367.2997
            0.063       101440.0027       101428.4782       101374.9308       101363.7648
          0.06325       101435.8957       101430.6876       101382.3934        101360.028
           0.0635       101429.0528       101429.6276       101390.6649       101356.2316
          0.06375       101420.0423       101425.1975       101399.0017       101352.4578
            0.064       101409.6412       101417.8917       101406.3461       101348.7836
          0.06425       101398.8184       101408.6085       101411.5713       101345.3079
           0.0645        101388.714        101398.456       101413.7438       101342.1667
          0.06475       101380.5437       101388.5438       101412.4453        101339.527
            0.065       101375.3691       101379.8296        101407.818        101337.565
          0.06525        101373.813       101373.0447       101400.5717       101336.4386
           0.0655       101375.8489       101368.6623        101391.848       101336.2651
          0.06575       101380.6982         101366.89         101382.96        101337.111
            0.066       101387.0472       101367.6676       101375.0851       101338.9955
          0.06625       101393.5055       101370.7122       101369.0213       101341.9167
           0.0665       101399.0591       101375.4565       101365.0823       101345.8178
          0.06675       101403.2965       101381.1512       101363.1501       101350.5406
            0.067         101406.41        101387.042       101362.8443       101355.8434
          0.06725        101409.008       101392.5245       101363.7244       101361.4288
           0.0675       101411.7477         101397.23       101365.4408       101366.9178
          0.06775        101414.966       101401.0352       101367.7848       101371.8639
            0.068       101418.4796       101404.0175       101370.6461       101375.8053
          0.06825       101421.5885       101406.3746       101373.9239       101378.3314
           0.0685       101423.3682       101408.2487       101377.4525       101379.1496
          0.06875       101423.1056       101409.5638       101380.9799       101378.1412
            0.069       101420.6625        101410.048       101384.2153       101375.4025
          0.06925       101416.5834       101409.3795       101386.8878       101371.2534
           0.0695       101411.8982       101407.3722       101388.8096       101366.1718
          0.06975       101407.7302       101404.1311       101389.9082       101360.7518
             0.07       101404.9135       101400.1089       101390.2117       101355.5906
          0.07025       101403.8021       101396.0239       101389.8027        101351.209
           0.0705       101404.3223       101392.6637       101388.7803       101347.9887
          0.07075       101406.1704       101390.6576       101387.2559       101346.1085
            0.071       101408.9928       101390.3195       101385.3829        101345.561
          0.07125       101412.4523        101391.614       101383.3927       101346.1711
           0.0715       101416.1996       101394.2274       101381.6052       101347.6637
          0.07175       101419.8435       101397.6848       101380.3876       101349.7399
            0.072            101423       101401.4615       101380.0685       101352.1079
          0.07225        101425.417       101405.0739       101380.8335       101354.5174
           0.0725       101427.0926       101408.1622       101382.6492        101356.789
          0.07275        101428.311       101410.5716        101385.251       101358.8109
            0.073       101429.5681       101412.4107       101388.2069        101360.515
          0.07325         101431.42       101414.0451         101391.04       101361.8569
           0.0735       101434.3045       101416.0003       101393.3699        101362.809
          0.07375       101438.4507       101418.7876       101395.0269       101363.3618
            0.074       101443.6279        101422.717       101396.1034       101363.5256
          0.07425       101449.1296       101427.7667       101396.9241       101363.3309
           0.0745       101453.8872       101433.5692       101397.9498       101362.8325
          0.07475       101456.7941       101439.4343       101399.6409       101362.1103
            0.075       101457.1454       101444.3939       101402.3174       101361.2675
          0.07525       101454.9906       101447.4497       101406.0523       101360.4202
           0.0755       101451.1591       101447.8359       101410.6433       101359.6805
          0.07575       101446.8469       101445.2211       101415.5816       101359.1381
            0.076       101442.9488       101439.8541       101420.1335       101358.8536
          0.07625       101439.4872       101432.5424       101423.5033       101358.8526
           0.0765       101435.5626       101424.4614       101424.9936       101359.1296