# Region type :   patch explosionChamber
# Faces           : 37875
# Area            : 9.6770513364e+01
# Scale factor    : 1.0000000000e+00
# Time            	max(T)
1.19999040008e-06 	2.9315000008e+02
2.63996505619e-06 	2.9315000017e+02
4.36794459704e-06 	2.9315000028e+02
6.44150571252e-06 	2.9315000041e+02
8.92973776977e-06 	2.9315000056e+02
1.19155270705e-05 	2.9315000072e+02
1.54983886296e-05 	2.9315000088e+02
1.97977608653e-05 	2.9315000103e+02
2.49567412781e-05 	2.9315000110e+02
3.11471343486e-05 	2.9315000100e+02
3.8575237941e-05  	2.9315000057e+02
4.74889622518e-05 	2.9315000001e+02
5.81854314247e-05 	2.9315000000e+02
7.10206446266e-05 	2.9315000000e+02
8.64213168522e-05 	2.9315000000e+02
0.000104900983155 	2.9315000000e+02
0.000127076582718 	2.9315000000e+02
0.000153689668853 	2.9315000000e+02
0.000185621962467 	2.9315000000e+02
0.000223940714803 	2.9315000000e+02
0.000269901988382 	2.9315000000e+02
0.000325035134736 	2.9315000000e+02
0.000391180227766 	2.9315000000e+02
0.000470554339401 	2.9315000001e+02
0.000565803273364 	2.9315003447e+02
0.000679970009453 	2.9315016468e+02
0.00081697009276  	2.9315019242e+02
0.00098146183158  	2.9315013369e+02
0.00117911722742  	2.9315008240e+02
0.00141611180399  	2.9315029982e+02
0.00166654421737  	2.9315101222e+02
0.00191697663075  	2.9315263361e+02
0.00216740904413  	2.9315575000e+02
0.00241784145751  	2.9316101571e+02
0.00266827387089  	2.9316899445e+02
0.00291870628428  	2.9318024908e+02
0.00316913869766  	2.9319447103e+02
0.00341957111104  	2.9321072503e+02
0.00367000352442  	2.9322735773e+02
0.0039204359378   	2.9324306333e+02
0.00417086835118  	2.9325507136e+02
0.00442130076456  	2.9326367337e+02
0.00467173317795  	2.9326977654e+02
0.00492216559133  	2.9327346382e+02
0.00517259800471  	2.9327410593e+02
0.00542303041809  	2.9327369781e+02
0.00567346283147  	2.9327118759e+02
0.00592389524485  	2.9326795310e+02
0.00617432765824  	2.9326435528e+02
0.00642476007162  	2.9326010111e+02
0.006675192485    	2.9325546116e+02
0.00692562489838  	2.9325172532e+02
0.00717605731176  	2.9325003561e+02
0.00742648972514  	2.9326222595e+02
0.00767692213852  	2.9327443535e+02
0.00792735455191  	2.9327981244e+02
0.00817778696529  	2.9328069665e+02
0.00842821937867  	2.9332055379e+02
0.00867865179205  	2.9330650959e+02
0.00892908420543  	2.9332124322e+02
0.00917951661881  	2.9329248462e+02
0.0094299490322   	2.9329597650e+02
0.00968038144558  	2.9331972730e+02
0.00993081385896  	2.9333999119e+02
0.0101812462723   	2.9334992809e+02
0.0104316786857   	2.9334558832e+02
0.0106821110991   	2.9332732715e+02
0.0109325435125   	2.9330208831e+02
0.0111829759259   	2.9329225553e+02
0.0114334083392   	2.9330449072e+02
0.0116838407526   	2.9331183408e+02
0.011934273166    	2.9331313842e+02
0.0121847055794   	2.9330941509e+02
0.0124351379928   	2.9330984824e+02
0.0126855704062   	2.9332226882e+02
0.0129360028195   	2.9333438277e+02
0.0131864352329   	2.9334635987e+02
0.0134368676463   	2.9335560471e+02
0.0136873000597   	2.9335804625e+02
0.0139377324731   	2.9335332552e+02
0.0141881648864   	2.9334539072e+02
0.0144385972998   	2.9333931338e+02
0.0146890297132   	2.9333714836e+02
0.0149394621266   	2.9333832171e+02
0.01518989454     	2.9334131110e+02
0.0154403269534   	2.9334571176e+02
0.0156907593667   	2.9335193171e+02
0.0159411917801   	2.9336010022e+02
0.0161916241935   	2.9336981856e+02
0.0164420566069   	2.9338046509e+02
0.0166924890203   	2.9339087873e+02
0.0169429214336   	2.9340055236e+02
0.017193353847    	2.9341631363e+02
0.0174437862604   	2.9341328711e+02
0.0176942186738   	2.9341385853e+02
0.0179446510872   	2.9342427063e+02
0.0181950835005   	2.9343458728e+02
0.0184455159139   	2.9344287777e+02
0.0186959483273   	2.9344766662e+02
0.0189463807407   	2.9344720428e+02
0.0191968131541   	2.9344900078e+02
0.0194472455675   	2.9345442776e+02
0.0196976779808   	2.9346010957e+02
0.0199481103942   	2.9346577138e+02
0.0201985428076   	2.9347300547e+02
0.020448975221    	2.9348156499e+02
0.0206994076344   	2.9349083782e+02
0.0209498400477   	2.9350078403e+02
0.0212002724611   	2.9350968208e+02
0.0214507048745   	2.9351190385e+02
0.0217011372879   	2.9351486138e+02
0.0219515697013   	2.9352153543e+02
0.0222020021147   	2.9353108398e+02
0.022452434528    	2.9353827814e+02
0.0227028669414   	2.9354368628e+02
0.0229532993548   	2.9354807390e+02
0.0232037317682   	2.9355216152e+02
0.0234541641816   	2.9355681574e+02
0.0237045965949   	2.9356295252e+02
0.0239550290083   	2.9357128934e+02
0.0242054614217   	2.9358228468e+02
0.0244558938351   	2.9359610612e+02
0.0247063262485   	2.9361249902e+02
0.0249567586618   	2.9363066710e+02
0.0252071910752   	2.9364989413e+02
0.0254576234886   	2.9366900505e+02
0.025708055902    	2.9368689581e+02
0.0259584883154   	2.9370318834e+02
0.0262089207288   	2.9371684452e+02
0.0264593531421   	2.9372716577e+02
0.0267097855555   	2.9373452747e+02
0.0269602179689   	2.9373976232e+02
0.0272106503823   	2.9374435227e+02
0.0274610827957   	2.9374994776e+02
0.027711515209    	2.9375688855e+02
0.0279619476224   	2.9376526814e+02
0.0282123800358   	2.9377490521e+02
0.0284628124492   	2.9378426111e+02
0.0287132448626   	2.9379333172e+02
0.028963677276    	2.9380492366e+02
0.0292141096893   	2.9382041054e+02
0.0294645421027   	2.9383764354e+02
0.0297149745161   	2.9385340011e+02
0.0299654069295   	2.9386693414e+02
0.0302158393429   	2.9388041698e+02
0.0304662717562   	2.9389542477e+02
0.0307167041696   	2.9391083308e+02
0.030967136583    	2.9392475507e+02
0.0312175689964   	2.9393648566e+02
0.0314680014098   	2.9394604643e+02
0.0317184338231   	2.9395364842e+02
0.0319688662365   	2.9396003581e+02
0.0322192986499   	2.9396628237e+02
0.0324697310633   	2.9397315051e+02
0.0327201634767   	2.9398113348e+02
0.0329705958901   	2.9399083470e+02
0.0332210283034   	2.9400258947e+02
0.0334714607168   	2.9401580837e+02
0.0337218931302   	2.9402920230e+02
0.0339723255436   	2.9404174702e+02
0.034222757957    	2.9405509553e+02
0.0344731903703   	2.9407001726e+02
0.0347236227837   	2.9408111306e+02
0.0349740551971   	2.9408620046e+02
0.0352244876105   	2.9409079016e+02
0.0354749200239   	2.9410070287e+02
0.0357253524373   	2.9411735720e+02
0.0359757848506   	2.9413547208e+02
0.036226217264    	2.9414620514e+02
0.0364766496774   	2.9414870233e+02
0.0367270820908   	2.9414910140e+02
0.0369775145042   	2.9415342200e+02
0.0372279469175   	2.9416252211e+02
0.0374783793309   	2.9417343229e+02
0.0377288117443   	2.9418239249e+02
0.0379792441577   	2.9418749934e+02
0.0382296765711   	2.9419053469e+02
0.0384801089845   	2.9419487268e+02
0.0387305413978   	2.9420141422e+02
0.0389809738112   	2.9420891155e+02
0.0392314062246   	2.9421660153e+02
0.039481838638    	2.9422484997e+02
0.0397322710514   	2.9423340689e+02
0.0399827034647   	2.9424138234e+02
0.0402331358781   	2.9424948727e+02
0.0404835682915   	2.9425837531e+02
0.0407340007049   	2.9426676700e+02
0.0409844331183   	2.9428001887e+02
0.0412348655316   	2.9428343055e+02
0.041485297945    	2.9428171904e+02
0.0417357303584   	2.9428866195e+02
0.0419861627718   	2.9430230450e+02
0.0422365951852   	2.9431332649e+02
0.0424870275986   	2.9431606129e+02
0.0427374600119   	2.9431617643e+02
0.0429878924253   	2.9432040918e+02
0.0432383248387   	2.9432701714e+02
0.0434887572521   	2.9433218935e+02
0.0437391896655   	2.9434144672e+02
0.0439896220788   	2.9435112765e+02
0.0442400544922   	2.9435703056e+02
0.0444904869056   	2.9436148349e+02
0.044740919319    	2.9436866460e+02
0.0449913517324   	2.9437575242e+02
0.0452417841458   	2.9437764344e+02
0.0454922165591   	2.9437786827e+02
0.0457426489725   	2.9438337423e+02
0.0459930813859   	2.9439202439e+02
0.0462435137993   	2.9439546778e+02
0.0464939462127   	2.9439375250e+02
0.046744378626    	2.9440097062e+02
0.0469948110394   	2.9439270503e+02
0.0472452434528   	2.9439073543e+02
0.0474956758662   	2.9440603953e+02
0.0477461082796   	2.9441500356e+02
0.0479965406929   	2.9441587085e+02
0.0482469731063   	2.9442295313e+02
0.0484974055197   	2.9443222908e+02
0.0487478379331   	2.9444615381e+02
0.0489982703465   	2.9446633962e+02
0.0492487027599   	2.9448404501e+02
0.0494991351732   	2.9450265524e+02
0.0497495675866   	2.9452323942e+02
0.05              	2.9454463969e+02
0.05025           	2.9456574377e+02
0.0505            	2.9458720939e+02
0.05075           	2.9460985090e+02
0.051             	2.9463408629e+02
0.05125           	2.9465592652e+02
0.0515            	2.9467405616e+02
0.05175           	2.9469266766e+02
0.052             	2.9471264491e+02
0.05225           	2.9473104463e+02
0.0525            	2.9474983444e+02
0.05275           	2.9476894851e+02
0.053             	2.9478885982e+02
0.05325           	2.9481172362e+02
0.0535            	2.9483732426e+02
0.05375           	2.9486169329e+02
0.054             	2.9488148252e+02
0.05425           	2.9489737994e+02
0.0545            	2.9491382597e+02
0.05475           	2.9493299700e+02
0.055             	2.9495318983e+02
0.05525           	2.9497256316e+02
0.0555            	2.9499095014e+02
0.05575           	2.9500769101e+02
0.056             	2.9502245515e+02
0.05625           	2.9503870639e+02
0.0565            	2.9505023029e+02
0.05675           	2.9505878171e+02
0.057             	2.9507250925e+02
0.05725           	2.9508995872e+02
0.0575            	2.9511293605e+02
0.05775           	2.9512616298e+02
0.058             	2.9512645449e+02
0.05825           	2.9514984196e+02
0.0585            	2.9517677749e+02
0.05875           	2.9520534780e+02
0.059             	2.9524084885e+02
0.05925           	2.9528282304e+02
0.0595            	2.9532511178e+02
0.05975           	2.9536200675e+02
0.06              	2.9539304329e+02
0.06025           	2.9542225657e+02
0.0605            	2.9545340204e+02
0.06075           	2.9548765183e+02
0.061             	2.9552511962e+02
0.06125           	2.9556360319e+02
0.0615            	2.9560175281e+02
0.06175           	2.9563885292e+02
0.062             	2.9567418770e+02
0.06225           	2.9570839638e+02
0.0625            	2.9574231926e+02
0.06275           	2.9577556024e+02
0.063             	2.9580838657e+02
0.06325           	2.9584032198e+02
0.0635            	2.9587106161e+02
0.06375           	2.9590172708e+02
0.064             	2.9593267133e+02
0.06425           	2.9596384889e+02
0.0645            	2.9599453073e+02
0.06475           	2.9602407577e+02
0.065             	2.9605277330e+02
0.06525           	2.9608198655e+02
0.0655            	2.9611177472e+02
0.06575           	2.9613995871e+02
0.066             	2.9616823845e+02
0.06625           	2.9619735801e+02
0.0665            	2.9622767984e+02
0.06675           	2.9625977073e+02
0.067             	2.9629342603e+02
0.06725           	2.9632772781e+02
0.0675            	2.9636110811e+02
0.06775           	2.9639090820e+02
0.068             	2.9641937811e+02
0.06825           	2.9645076657e+02
0.0685            	2.9648510472e+02
0.06875           	2.9651916654e+02
0.069             	2.9654858646e+02
0.06925           	2.9657077961e+02
0.069497983871    	2.9658774544e+02
0.069742          	2.9660428341e+02
0.069984064       	2.9662325080e+02
0.070224191488    	2.9664685695e+02
0.0704623979561   	2.9667503595e+02
0.0706986987724   	2.9670545534e+02
0.0709331091823   	2.9673514546e+02
0.0711675195921   	2.9676173513e+02
0.0714000395954   	2.9678540876e+02
0.0716306844374   	2.9680823937e+02
0.0718613292793   	2.9683213295e+02
0.07209009896     	2.9685892085e+02
0.0723188686406   	2.9688828479e+02
0.07254576316     	2.9691955992e+02
0.0727707978882   	2.9695230650e+02
0.0729958326164   	2.9698600149e+02
0.0732190075534   	2.9702034180e+02
0.0734403380695   	2.9705407158e+02
0.0736616685856   	2.9708542316e+02
0.0738811546807   	2.9711562866e+02
0.074098811725    	2.9714644108e+02
0.0743164687694   	2.9717855433e+02
0.0745322967629   	2.9721218949e+02
0.0747481247564   	2.9724515447e+02
0.0749621236992   	2.9727535550e+02
0.0751743090916   	2.9730195193e+02
0.0753864944839   	2.9732536877e+02
0.075596866326    	2.9734887386e+02
0.075807238168    	2.9737529174e+02
0.0760157964596   	2.9740597512e+02
0.076222556835    	2.9744094945e+02
0.0764293172103   	2.9747832749e+02
0.0766342796694   	2.9751595109e+02
0.0768374598462   	2.9755217719e+02
0.0770406400229   	2.9758524537e+02
0.0772438201997   	2.9761474808e+02
0.0774452023219   	2.9764153571e+02
0.077646584444    	2.9766631437e+02
0.0778461685115   	2.9769115501e+02
0.0780457525789   	2.9771828391e+02
0.0782435385917   	2.9774979895e+02
0.0784413246045   	2.9778598914e+02
0.0786373125627   	2.9782541296e+02
0.0788333005208   	2.9786517040e+02
0.0790274904243   	2.9790280051e+02
0.0792216803278   	2.9793734553e+02
0.0794140721766   	2.9796930731e+02
0.0796064640254   	2.9799947278e+02
0.0797970578195   	2.9802931864e+02
0.0799876516137   	2.9806008475e+02
0.0801764473532   	2.9809239709e+02
0.0803652430927   	2.9812557755e+02
0.0805522407775   	2.9815860426e+02
0.080737457532    	2.9819055636e+02
0.0809226742865   	2.9821993948e+02
0.0811061101107   	2.9824641769e+02
0.0812895459349   	2.9827096497e+02
0.0814712008287   	2.9829622437e+02
0.0816528557225   	2.9832406933e+02
0.081832729686    	2.9835495437e+02
0.0820126036495   	2.9838748968e+02
0.0821906966827   	2.9842019754e+02
0.0823670264185   	2.9845216246e+02
0.0825433561543   	2.9848239187e+02
0.0827179225928   	2.9851101188e+02
0.0828924890313   	2.9853832171e+02
0.0830652921724   	2.9856556950e+02
0.0832380953135   	2.9859364482e+02
0.0834091351572   	2.9862335203e+02
0.0835801750009   	2.9865467679e+02
0.0837512148447   	2.9868727714e+02
0.0839204730234   	2.9872141979e+02
0.0840897312021   	2.9875721910e+02
0.0842589893808   	2.9879446995e+02
0.0844264469406   	2.9883256904e+02
0.0845939045003   	2.9886954017e+02
0.0847613620601   	2.9890326170e+02
0.084926999429    	2.9893371513e+02
0.0850926367979   	2.9896261425e+02
0.0852582741668   	2.9899232541e+02
0.0854239115358   	2.9902491866e+02
0.0855876878106   	2.9906111460e+02
0.0857514640855   	2.9909969322e+02
0.0859152403604   	2.9913853076e+02
0.0860790166353   	2.9917666820e+02
0.0862408885349   	2.9921362463e+02
0.0864027604345   	2.9924798023e+02
0.086564632334    	2.9927836813e+02
0.0867265042336   	2.9930477030e+02
0.0868864258694   	2.9932838575e+02
0.0870463475051   	2.9935014294e+02
0.0872062691409   	2.9937151149e+02
0.0873642164354   	2.9939532466e+02
0.08752216373     	2.9942365578e+02
0.0876801110245   	2.9945749345e+02
0.0878360589862   	2.9949639442e+02
0.087992006948    	2.9953742427e+02
0.0881479549097   	2.9957640688e+02
0.0883018775732   	2.9961090546e+02
0.0884558002367   	2.9964077819e+02
0.0886097229002   	2.9966755874e+02
0.0887636455637   	2.9969312551e+02
0.0889154881912   	2.9971847918e+02
0.0890673308187   	2.9974336203e+02
0.0892191734463   	2.9976830262e+02
0.0893689071484   	2.9979523224e+02
0.0895186408505   	2.9982565715e+02
0.0896683745527   	2.9985963164e+02
0.0898181082548   	2.9989567234e+02
0.0899656719033   	2.9993254632e+02
0.0901132355518   	2.9996903756e+02
0.0902607992003   	3.0000237409e+02
0.0904083628487   	3.0003125820e+02
0.0905559264972   	3.0005667358e+02
0.0907012199357   	3.0008127605e+02
0.0908465133742   	3.0010686749e+02
0.0909918068127   	3.0013360818e+02
0.0911371002512   	3.0016031531e+02
0.0912823936897   	3.0022191834e+02
0.0914253052686   	3.0025063372e+02
0.0915682168474   	3.0026861265e+02
0.0917111284263   	3.0028532435e+02
0.0918540400052   	3.0030363907e+02
0.091996951584    	3.0032302935e+02
0.0921398631629   	3.0034259637e+02
0.0922802227493   	3.0036298806e+02
0.0924205823356   	3.0038496227e+02
0.092560941922    	3.0040909454e+02
0.0927013015084   	3.0043508059e+02
0.0928416610948   	3.0046144294e+02
0.0929793214583   	3.0048692263e+02
0.0931169818219   	3.0051076832e+02
0.0932546421854   	3.0053245828e+02
0.093392302549    	3.0055159724e+02
0.0935299629126   	3.0056775645e+02
0.0936676232761   	3.0058061082e+02
0.0938023546958   	3.0059071090e+02
0.0939370861154   	3.0059791661e+02
0.0940718175351   	3.0060300294e+02
0.0942065489548   	3.0060815613e+02
0.0943412803744   	3.0061569235e+02
0.0944760117941   	3.0062693285e+02
0.0946075353228   	3.0064253893e+02
0.0947390588515   	3.0066136975e+02
0.0948705823802   	3.0068166743e+02
0.0950021059089   	3.0070164344e+02
0.0951336294376   	3.0071981446e+02
0.0952651529664   	3.0073593608e+02
0.0953966764951   	3.0075000802e+02
0.0955282000238   	3.0076252336e+02
0.0956559657374   	3.0077483054e+02
0.095783731451    	3.0078645676e+02
0.0959114971646   	3.0079676022e+02
0.0960392628782   	3.0080487400e+02
0.0961670285918   	3.0081089106e+02
0.0962947943054   	3.0081582657e+02
0.096422560019    	3.0082060706e+02
0.0965503257326   	3.0082556338e+02
0.0966780914462   	3.0083095382e+02
0.0968058571598   	3.0083667535e+02
0.0969336228734   	3.0084515201e+02
0.0970613885871   	3.0084926717e+02
0.0971838307293   	3.0085373388e+02
0.0973062728715   	3.0085815446e+02
0.0974287150137   	3.0086086228e+02
0.0975511571559   	3.0086113007e+02
0.0976735992981   	3.0085903904e+02
0.0977960414403   	3.0085545699e+02
0.0979184835825   	3.0085137008e+02
0.0980409257247   	3.0084791090e+02
0.0981633678669   	3.0084579010e+02
0.0982858100091   	3.0084496374e+02
0.0984082521513   	3.0084446364e+02
0.0985306942935   	3.0084324867e+02
0.0986531364357   	3.0084090349e+02
0.0987755785779   	3.0083689572e+02
0.0988980207201   	3.0083175289e+02
0.0990204628624   	3.0082601725e+02
0.0991429050046   	3.0081948109e+02
0.0992653471468   	3.0081177886e+02
0.099387789289    	3.0080289181e+02
0.0995102314312   	3.0079334196e+02
0.0996326735734   	3.0078352560e+02
0.0997551157156   	3.0077385893e+02
0.0998775578578   	3.0076486180e+02
0.1               	3.0075737085e+02
0.100118483412    	3.0075254789e+02
0.100236686058    	3.0074858287e+02
0.100354608603    	3.0074369068e+02
0.100472251711    	3.0073681464e+02
0.100589894818    	3.0072773981e+02
0.100707258489    	3.0071694087e+02
0.100824343385    	3.0070513549e+02
0.100941150171    	3.0069244804e+02
0.101057679505    	3.0067889248e+02
0.101173932048    	3.0066493750e+02
0.101289908456    	3.0065134150e+02
0.101405609386    	3.0063854650e+02
0.101521035492    	3.0062671620e+02
0.101635914555    	3.0061582172e+02
0.101750521393    	3.0060584360e+02
0.10186485665     	3.0059693205e+02
0.101978920971    	3.0058900535e+02
0.102092714997    	3.0058147281e+02
0.102206239369    	3.0059921889e+02
0.102319494726    	3.0062694371e+02
0.102432750083    	3.0065565594e+02
0.102545736425    	3.0068248950e+02
0.10265845439     	3.0070354464e+02
0.102770904617    	3.0072048186e+02
0.102883087742    	3.0073552860e+02
0.102995270866    	3.0075113520e+02
0.103107186888    	3.0076891208e+02
0.103218836443    	3.0078994758e+02
0.103329955596    	3.0081441629e+02
0.103440810809    	3.0084217186e+02
0.103551402707    	3.0087153687e+02
0.103661731917    	3.0090181885e+02
0.103771799062    	3.0093210764e+02
0.103881344562    	3.0096071390e+02
0.103990630475    	3.0098610160e+02
0.104099657417    	3.0100731785e+02
0.104208426001    	3.0102444077e+02
0.10431693684     	3.0103952162e+02
0.104425190545    	3.0104058396e+02
0.104533187723    	3.0105408669e+02
0.104640928985    	3.0107363577e+02
0.104748414935    	3.0109621560e+02
0.104855646179    	3.0111964668e+02
0.104962623321    	3.0115224070e+02
0.105069346962    	3.0119057518e+02
0.105175817704    	3.0121728397e+02
0.105282288446    	3.0123985816e+02
0.105388506288    	3.0125975335e+02
0.105494471831    	3.0127855029e+02
0.105600185675    	3.0130047119e+02
0.105705648417    	3.0132841323e+02
0.105811111159    	3.0136103414e+02
0.105916322799    	3.0139099238e+02
0.106021283935    	3.0141897135e+02
0.106125995164    	3.0144779056e+02
0.106230706392    	3.0147541657e+02
0.106335167714    	3.0150023130e+02
0.106439379724    	3.0151347427e+02
0.106543343018    	3.0153128593e+02
0.10664705819     	3.0155346879e+02
0.106750525831    	3.0157861274e+02
0.106853993473    	3.0160065171e+02
0.106957213584    	3.0162148772e+02
0.107060186758    	3.0164305413e+02
0.107162913584    	3.0166594626e+02
0.107265394652    	3.0168968670e+02
0.107367630549    	3.0171352989e+02
0.107469621864    	3.0173796304e+02
0.10757136918     	3.0176292685e+02
0.107672873082    	3.0178973542e+02
0.107774134151    	3.0181566035e+02
0.107875152969    	3.0183808602e+02
0.107975930115    	3.0185621364e+02
0.108076466167    	3.0187358751e+02
0.108177002219    	3.0188856659e+02
0.108277297178    	3.0189822029e+02
0.108377351621    	3.0190618443e+02
0.108477406064    	3.0191538364e+02
0.108577219992    	3.0192600378e+02
0.108676793983    	3.0194183135e+02
0.108776128612    	3.0195519724e+02
0.108875224457    	3.0196477714e+02
0.108974082091    	3.0196902949e+02
0.109072939724    	3.0197118027e+02
0.109171559146    	3.0197705589e+02
0.109269940932    	3.0198499707e+02
0.109368085652    	3.0199232242e+02
0.10946599388     	3.0199766519e+02
0.109563666184    	3.0200319732e+02
0.109661338487    	3.0200766788e+02
0.109758774868    	3.0201183695e+02
0.109855975895    	3.0201329875e+02
0.109952942137    	3.0201688377e+02
0.110049908378    	3.0201883789e+02
0.110146639835    	3.0202050702e+02
0.110243137075    	3.0202618648e+02
0.110339634315    	3.0203355108e+02
0.110435897339    	3.0204375878e+02
0.110531926714    	3.0205224634e+02
0.110627723009    	3.0205947979e+02
0.110723519303    	3.0206520403e+02
0.110819082516    	3.0207017312e+02
0.110914413216    	3.0207412479e+02
0.111009743915    	3.0207786538e+02
0.111104842101    	3.0208075420e+02
0.11119970834     	3.0208210719e+02
0.111294343197    	3.0208139107e+02
0.111388978055    	3.0207923574e+02
0.111483381532    	3.0207738364e+02
0.111577554193    	3.0207494075e+02
0.111671726854    	3.0207212611e+02
0.1117656687      	3.0207016126e+02
0.111859380297    	3.0206973606e+02
0.111953091893    	3.0207027501e+02
0.11204657324     	3.0207195262e+02
0.112139824902    	3.0207441139e+02
0.112233076565    	3.0207749431e+02
0.112326328228    	3.0208072642e+02
0.11241934964     	3.0208820586e+02
0.112512371052    	3.0209179647e+02
0.112605162212    	3.0209329158e+02
0.112697953373    	3.0209331737e+02
0.112790514283    	3.0209072111e+02
0.112883075193    	3.0208736412e+02
0.112975405851    	3.0208498829e+02
0.11306773651     	3.0208336287e+02
0.113160067169    	3.0208258430e+02
0.113252167001    	3.0208266958e+02
0.113344266833    	3.0208452351e+02
0.113436135838    	3.0208563937e+02
0.113528004844    	3.0208535807e+02
0.113619643023    	3.0208308092e+02
0.113711050955    	3.0207897749e+02
0.113802458887    	3.0207559810e+02
0.113893636572    	3.0207057392e+02
0.113984584591    	3.0206763036e+02
0.11407553261     	3.0207023066e+02
0.114166250962    	3.0207050195e+02
0.114256740227    	3.0207070234e+02
0.114347229492    	3.0207147003e+02
0.114437489671    	3.0207256765e+02
0.114527521342    	3.0207319956e+02
0.114617325086    	3.0207255735e+02
0.114707128829    	3.0207034549e+02
0.114796704644    	3.0206667248e+02
0.11488628046     	3.0206173210e+02
0.114975628346    	3.0205558059e+02
0.115064748885    	3.0204842651e+02
0.115153869424    	3.0204084880e+02
0.115242762614    	3.0203409099e+02
0.115331655804    	3.0202860133e+02
0.115420321646    	3.0202453931e+02
0.115508987488    	3.0202255743e+02
0.115597425981    	3.0202354608e+02
0.11568563771     	3.0202726662e+02
0.115773849438    	3.0203267492e+02
0.115861834401    	3.0204785999e+02
0.115949593181    	3.0207418331e+02
0.116037126361    	3.0210164909e+02
0.11612465954     	3.0213028111e+02
0.116211967119    	3.0215964006e+02
0.116299274697    	3.0218965310e+02
0.116386356675    	3.0222029794e+02
0.116473213634    	3.0225251661e+02
0.116560070594    	3.0228528771e+02
0.116646702535    	3.0231812996e+02
0.116733334477    	3.0235123312e+02
0.1168197414      	3.0238315973e+02
0.116906148324    	3.0241308343e+02
0.116992330229    	3.0244100269e+02
0.117078287702    	3.0246668486e+02
0.117164245176    	3.0248996791e+02
0.117249978217    	3.0251203932e+02
0.117335711258    	3.0253317185e+02
0.117421219868    	3.0255403565e+02
0.117506504632    	3.0257613842e+02
0.117591789397    	3.0260048009e+02
0.117676850317    	3.0262876904e+02
0.117761911238    	3.0266161323e+02
0.117846748313    	3.0269783181e+02
0.117931585389    	3.0273615802e+02
0.11801619862     	3.0277572068e+02
0.118100811851    	3.0281462261e+02
0.118185201238    	3.0285113023e+02
0.118269590625    	3.0288478225e+02
0.118353980011    	3.0291525345e+02
0.118438144958    	3.0294389421e+02
0.118522309905    	3.0297129950e+02
0.118606250412    	3.0299808425e+02
0.118690190919    	3.0302550478e+02
0.118773906986    	3.0305191706e+02
0.118857623053    	3.0307825233e+02
0.11894133912     	3.0310302861e+02
0.119024830144    	3.0312626255e+02
0.119108321168    	3.0314925077e+02
0.119191587148    	3.0317239081e+02
0.119274853129    	3.0319708573e+02
0.119357894066    	3.0322359377e+02
0.119440935004    	3.0325208520e+02
0.119523750898    	3.0328222751e+02
0.119606566792    	3.0331405681e+02
0.119689157644    	3.0334649727e+02
0.119771748495    	3.0337824052e+02
0.119854114303    	3.0340917800e+02
0.119936480111    	3.0343949410e+02
0.120018620875    	3.0346914288e+02
0.12010076164     	3.0349693851e+02
0.120182677362    	3.0352292837e+02
0.120264593083    	3.0354733623e+02
0.120346283761    	3.0357127145e+02
0.12042797444     	3.0359645308e+02
0.120509440075    	3.0362309690e+02
0.12059090571     	3.0365208156e+02
0.120672371345    	3.0368410798e+02
0.120753611314    	3.0371826069e+02
0.120834851282    	3.0375224719e+02
0.120915865584    	3.0378825420e+02
0.120996879886    	3.0382387831e+02
0.121077668522    	3.0385758857e+02
0.121158457157    	3.0389100731e+02
0.121239020126    	3.0391832227e+02
0.121319583095    	3.0394235560e+02
0.121399920397    	3.0396606465e+02
0.121480257699    	3.0399122546e+02
0.121560369335    	3.0401584717e+02
0.121640480971    	3.0404020797e+02
0.12172036694     	3.0406185557e+02
0.121800252909    	3.0408274458e+02
0.121879913211    	3.0410253817e+02
0.121959573514    	3.0412430534e+02
0.122039233816    	3.0414498072e+02
0.122118667811    	3.0416629193e+02
0.122198101806    	3.0418761285e+02
0.122277535801    	3.0420822701e+02
0.122356742842    	3.0422733539e+02
0.122435949882    	3.0424717663e+02
0.122515156923    	3.0427051620e+02
0.122594136357    	3.0429478820e+02
0.122673115791    	3.0432065945e+02
0.122752095225    	3.0434605729e+02
0.122830846395    	3.0437242808e+02
0.122909597565    	3.0439891153e+02
0.122988348735    	3.0442733695e+02
0.123067099905    	3.0445597908e+02
0.123145621479    	3.0448318690e+02
0.123224143054    	3.0450759246e+02
0.123302664628    	3.0453191163e+02
0.123381186203    	3.0455394789e+02
0.123459707778    	3.0457298996e+02
0.123537997725    	3.0458924140e+02
0.123616287673    	3.0460271261e+02
0.12369457762     	3.0461420020e+02
0.123772867568    	3.0462537054e+02
0.123851157515    	3.0463280409e+02
0.123929213762    	3.0463287883e+02
0.124007270008    	3.0463890127e+02
0.124085326254    	3.0464624660e+02
0.124163148097    	3.0465411121e+02
0.12424096994     	3.0465844028e+02
0.124318791783    	3.0466555443e+02
0.124396378515    	3.0466931958e+02
0.124473965247    	3.0467257402e+02
0.124551551979    	3.0467615495e+02
0.124628902884    	3.0468279942e+02
0.12470625379     	3.0468875124e+02
0.124783604696    	3.0469463716e+02
0.124860719055    	3.0470324839e+02
0.124937833414    	3.0471245652e+02
0.125014947772    	3.0472192311e+02
0.125092062131    	3.0473102990e+02
0.125168938483    	3.0474248064e+02
0.125245814834    	3.0475142818e+02
0.125322691185    	3.0475851873e+02
0.12539932879     	3.0476167962e+02
0.125475966395    	3.0476561441e+02
0.125552604       	3.0476451515e+02
0.125629002113    	3.0476058273e+02
0.125705400225    	3.0475567910e+02
0.125781798338    	3.0475241029e+02
0.125857956205    	3.0474264341e+02
0.125934114072    	3.0473028482e+02
0.126010271939    	3.0471809233e+02
0.1260861888      	3.0470625155e+02
0.12616210566     	3.0469550731e+02
0.126238022521    	3.0468322693e+02
0.126313697609    	3.0467057867e+02
0.126389372696    	3.0465743017e+02
0.126465047784    	3.0463925026e+02
0.126540480323    	3.0462161179e+02
0.126615912862    	3.0460175122e+02
0.126691345401    	3.0458072359e+02
0.12676653461     	3.0455905353e+02
0.126841723818    	3.0453773735e+02
0.126916913027    	3.0451795665e+02
0.126991858114    	3.0450032030e+02
0.127066803202    	3.0448432923e+02
0.127141748289    	3.0446944468e+02
0.127216448458    	3.0445539387e+02
0.127291148627    	3.0444465003e+02
0.127365848796    	3.0443259829e+02
0.127440303241    	3.0441903757e+02
0.127514757686    	3.0440850782e+02
0.12758921213     	3.0440172779e+02
0.127663420037    	3.0438705954e+02
0.127737627944    	3.0437059428e+02
0.127811835851    	3.0435366716e+02
0.127885796398    	3.0433634349e+02
0.127959756945    	3.0431748210e+02
0.128033717493    	3.0429695993e+02
0.12810742985     	3.0427530170e+02
0.128181142207    	3.0425327851e+02
0.128254854565    	3.0423044497e+02
0.128328566922    	3.0420728379e+02
0.128402029407    	3.0418270453e+02
0.128475491892    	3.0415765905e+02
0.128548954377    	3.0413210297e+02
0.128622416862    	3.0410634970e+02
0.128695627763    	3.0408112941e+02
0.128768838665    	3.0405545302e+02
0.128842049566    	3.0403148966e+02
0.128915260467    	3.0400576792e+02
0.128988218043    	3.0397857171e+02
0.129061175619    	3.0395010346e+02
0.129134133196    	3.0392090020e+02
0.129207090772    	3.0389294095e+02
0.129280048348    	3.0386469471e+02
0.129352749933    	3.0383604443e+02
0.129425451518    	3.0380682141e+02
0.129498153102    	3.0377929185e+02
0.129570854687    	3.0375379047e+02
0.129643556272    	3.0373026120e+02
0.129715999132    	3.0370763367e+02
0.129788441992    	3.0368476850e+02
0.129860884852    	3.0366123135e+02
0.129933327713    	3.0363134636e+02
0.130005770573    	3.0360308549e+02
0.130078213433    	3.0357688416e+02
0.130150393819    	3.0359671835e+02
0.130222574205    	3.0361589700e+02
0.130294754592    	3.0363522883e+02
0.130366934978    	3.0365477976e+02