# Probe 0 (0.4 0.005 1.4)
# Probe 1 (0.9 0.005 1.4)
# Probe 2 (1.4 0.005 1.4)
# Probe 3 (1.9 0.005 1.4)
# Probe 4 (2.4 0.005 1.4)
# Probe 5 (2.9 0.005 1.4)
# Probe 6 (3.4 0.005 1.4)
# Probe 7 (3.9 0.005 1.4)
# Probe 8 (4.4 0.005 1.4)
# Probe 9 (4.9 0.005 1.4)
# Probe 10 (5.4 0.005 1.4)
# Probe 11 (5.9 0.005 1.4)
# Probe 12 (6.4 0.005 1.4)
# Probe 13 (6.9 0.005 1.4)
# Probe 14 (7.4 0.005 1.4)
# Probe 15 (7.9 0.005 1.4)
# Probe 16 (8.4 0.005 1.4)
#           Probe                 0                 1                 2                 3                 4                 5                 6                 7                 8                 9                10                11                12                13                14                15                16
#            Time
    1.1999904e-06                 1                 1                 1                 1      0.9999923816                 1                 1                 1                 1                 1                 1                 1                 1                 1                 1                 1                 1
  2.639965056e-06                 1                 1                 1      0.9999999999      0.9999832383                 1                 1                 1                 1                 1                 1                 1                 1                 1                 1                 1                 1
  4.367944597e-06                 1                 1                 1      0.9999999998      0.9999722642                 1                 1                 1                 1                 1                 1                 1                 1                 1                 1                 1                 1
  6.441505713e-06                 1                 1                 1      0.9999999995      0.9999590918                 1                 1                 1                 1                 1                 1                 1                 1                 1                 1                 1                 1
   8.92973777e-06                 1                 1                 1      0.9999999991      0.9999432801                 1                 1                 1                 1                 1                 1                 1                 1                 1                 1                 1                 1
  1.191552707e-05                 1                 1                 1      0.9999999984      0.9999242994                 1                 1                 1                 1                 1                 1                 1                 1                 1                 1                 1                 1
  1.549838863e-05                 1                 1                 1      0.9999999973      0.9999015125                 1                 1                 1                 1                 1                 1                 1                 1                 1                 1                 1                 1
  1.979776087e-05                 1                 1                 1      0.9999999956      0.9998741534                 1                 1                 1                 1                 1                 1                 1                 1                 1                 1                 1                 1
  2.495674128e-05                 1                 1                 1       0.999999993      0.9998413022                 1                 1                 1                 1                 1                 1                 1                 1                 1                 1                 1                 1
  3.114713435e-05                 1                 1                 1      0.9999999891      0.9998018516                 1                 1                 1                 1                 1                 1                 1                 1                 1                 1                 1                 1
  3.857523794e-05                 1                 1                 1      0.9999999833      0.9997544675                 1                 1                 1                 1                 1                 1                 1                 1                 1                 1                 1                 1
  4.748896225e-05                 1                 1                 1      0.9999999746      0.9996975408                 1                 1                 1                 1                 1                 1                 1                 1                 1                 1                 1                 1
  5.818543142e-05                 1                 1                 1      0.9999999616      0.9996291335                 1                 1                 1                 1                 1                 1                 1                 1                 1                 1                 1                 1
  7.102064463e-05                 1                 1                 1      0.9999999424      0.9995469106                 1                 1                 1                 1                 1                 1                 1                 1                 1                 1                 1                 1
  8.642131685e-05                 1                 1                 1      0.9999999137      0.9994480535                 1                 1                 1                 1                 1                 1                 1                 1                 1                 1                 1                 1
  0.0001049009832                 1                 1                 1      0.9999998708      0.9993291422                 1                 1                 1                 1                 1                 1                 1                 1                 1                 1                 1                 1
  0.0001270765827                 1                 1                 1      0.9999998061      0.9991860251                 1                 1                 1                 1                 1                 1                 1                 1                 1                 1                 1                 1
  0.0001536896689                 1                 1                 1      0.9999997075      0.9990136484                 1                 1                 1                 1                 1                 1                 1                 1                 1                 1                 1                 1
  0.0001856219625                 1                 1                 1       0.999999555      0.9988059014                 1                 1                 1                 1                 1                 1                 1                 1                 1                 1                 1                 1
  0.0002239407148                 1                 1                 1      0.9999993145      0.9985552391      0.9999999999                 1                 1                 1                 1                 1                 1                 1                 1                 1                 1                 1
  0.0002699019884                 1                 1                 1      0.9999989271      0.9982525278      0.9999999996                 1                 1                 1                 1                 1                 1                 1                 1                 1                 1                 1
  0.0003250351347                 1                 1                 1      0.9999982888      0.9978862774       0.999999999                 1                 1                 1                 1                 1                 1                 1                 1                 1                 1                 1
  0.0003911802278                 1                 1                 1      0.9999972151      0.9974420428      0.9999999974                 1                 1                 1                 1                 1                 1                 1                 1                 1                 1                 1
  0.0004705543394                 1                 1                 1      0.9999953808      0.9969014284      0.9999999928                 1                 1                 1                 1                 1                 1                 1                 1                 1                 1                 1
  0.0005658032734                 1                 1                 1      0.9999922306      0.9962409076      0.9999999802                 1                 1                 1                 1                 1                 1                 1                 1                 1                 1                 1
  0.0006799700095                 1                 1                 1      0.9999868777      0.9954309659      0.9999999465                 1                 1                 1                 1                 1                 1                 1                 1                 1                 1                 1
  0.0008169700928                 1                 1                 1      0.9999780186        0.99443155      0.9999998608                 1                 1                 1                 1                 1                 1                 1                 1                 1                 1                 1
  0.0009814618316                 1                 1                 1      0.9999640464      0.9931920929      0.9999996584                 1                 1                 1                 1                 1                 1                 1                 1                 1                 1                 1
   0.001179117227                 1                 1                 1      0.9999434989      0.9916497877      0.9999992296                 1                 1                 1                 1                 1                 1                 1                 1                 1                 1                 1
   0.001416111804                 1                 1                 1      0.9999158367      0.9897348079      0.9999984402                 1                 1                 1                 1                 1                 1                 1                 1                 1                 1                 1
   0.001666544217                 1                 1                 1      0.9998853373       0.987647143      0.9999973429                 1                 1                 1                 1                 1                 1                 1                 1                 1                 1                 1
   0.001916976631                 1                 1      0.9999999999      0.9998527145      0.9854954143      0.9999960482                 1                 1                 1                 1                 1                 1                 1                 1                 1                 1                 1
   0.002167409044                 1                 1      0.9999999999      0.9998159057      0.9832691892      0.9999945798                 1                 1                 1                 1                 1                 1                 1                 1                 1                 1                 1
   0.002417841458                 1                 1      0.9999999998      0.9997740271      0.9809584279      0.9999929072                 1                 1                 1                 1                 1                 1                 1                 1                 1                 1                 1
   0.002668273871                 1                 1      0.9999999997      0.9997269966      0.9785578862      0.9999909668      0.9999999999                 1                 1                 1                 1                 1                 1                 1                 1                 1                 1
   0.002918706284                 1                 1      0.9999999996      0.9996752197      0.9760667679      0.9999886866      0.9999999999                 1                 1                 1                 1                 1                 1                 1                 1                 1                 1
   0.003169138698                 1                 1      0.9999999994      0.9996189627       0.973485451          0.999986      0.9999999999                 1                 1                 1                 1                 1                 1                 1                 1                 1                 1
   0.003419571111                 1                 1      0.9999999992      0.9995578213      0.9708118622      0.9999828404      0.9999999998                 1                 1                 1                 1                 1                 1                 1                 1                 1                 1
   0.003670003524                 1                 1       0.999999999      0.9994909374      0.9680411343      0.9999791355      0.9999999998                 1                 1                 1                 1                 1                 1                 1                 1                 1                 1
   0.003920435938                 1                 1      0.9999999988      0.9994177165      0.9651685009       0.999974814      0.9999999997                 1                 1                 1                 1                 1                 1                 1                 1                 1                 1
   0.004170868351                 1                 1      0.9999999985      0.9993381863      0.9621916456      0.9999698236      0.9999999996                 1                 1                 1                 1                 1                 1                 1                 1                 1                 1
   0.004421300765                 1                 1      0.9999999981       0.999252748      0.9591102564       0.999964143      0.9999999995                 1                 1                 1                 1                 1                 1                 1                 1                 1                 1
   0.004671733178                 1                 1      0.9999999976       0.999161697      0.9559238868      0.9999577756      0.9999999994                 1                 1                 1                 1                 1                 1                 1                 1                 1                 1
   0.004922165591                 1                 1      0.9999999969      0.9990649976      0.9526305511      0.9999507283      0.9999999993                 1                 1                 1                 1                 1                 1                 1                 1                 1                 1
   0.005172598005                 1                 1      0.9999999961      0.9989633503      0.9492256578      0.9999441719       0.999999999                 1                 1                 1                 1                 1                 1                 1                 1                 1                 1
   0.005423030418                 1                 1      0.9999999952      0.9988558895      0.9457008347      0.9999388454      0.9999999988                 1                 1                 1                 1                 1                 1                 1                 1                 1                 1
   0.005673462831                 1                 1       0.999999994      0.9987417925       0.942058926       0.999931928      0.9999999985                 1                 1                 1                 1                 1                 1                 1                 1                 1                 1
   0.005923895245                 1                 1      0.9999999927      0.9986205041      0.9383021654      0.9999242383      0.9999999981                 1                 1                 1                 1                 1                 1                 1                 1                 1                 1
   0.006174327658                 1                 1       0.999999991      0.9984921941       0.934422227      0.9999175699      0.9999999977                 1                 1                 1                 1                 1                 1                 1                 1                 1                 1
   0.006424760072                 1                 1      0.9999999891       0.998356839      0.9304182883      0.9999088835      0.9999999972                 1                 1                 1                 1                 1                 1                 1                 1                 1                 1
   0.006675192485                 1                 1      0.9999999868      0.9982144988      0.9262853658      0.9998998103      0.9999999966                 1                 1                 1                 1                 1                 1                 1                 1                 1                 1
   0.006925624898                 1                 1      0.9999999841      0.9980647785      0.9220240387      0.9998871227      0.9999999958                 1                 1                 1                 1                 1                 1                 1                 1                 1                 1
   0.007176057312                 1                 1       0.999999981      0.9979075655      0.9176291245      0.9998725589       0.999999995                 1                 1                 1                 1                 1                 1                 1                 1                 1                 1
   0.007426489725                 1                 1      0.9999999772      0.9977426631      0.9130966436      0.9998566611       0.999999994                 1                 1                 1                 1                 1                 1                 1                 1                 1                 1
   0.007676922139                 1                 1      0.9999999729       0.997569843      0.9084229325      0.9998395746      0.9999999929                 1                 1                 1                 1                 1                 1                 1                 1                 1                 1
   0.007927354552                 1                 1       0.999999968      0.9973888402      0.9036044345      0.9998212982      0.9999999915                 1                 1                 1                 1                 1                 1                 1                 1                 1                 1
   0.008177786965                 1                 1      0.9999999622      0.9971993598       0.898637442      0.9998017898        0.99999999                 1                 1                 1                 1                 1                 1                 1                 1                 1                 1
   0.008428219379                 1                 1      0.9999999556      0.9970011422      0.8935183398      0.9997810107      0.9999999881                 1                 1                 1                 1                 1                 1                 1                 1                 1                 1
   0.008678651792                 1                 1      0.9999999481      0.9967939007      0.8882432941      0.9997589169       0.999999986                 1                 1                 1                 1                 1                 1                 1                 1                 1                 1
   0.008929084205                 1                 1      0.9999999396      0.9965773606      0.8828084921      0.9997354656      0.9999999836                 1                 1                 1                 1                 1                 1                 1                 1                 1                 1
   0.009179516619                 1                 1      0.9999999299      0.9963512452      0.8772101221      0.9997106122      0.9999999809                 1                 1                 1                 1                 1                 1                 1                 1                 1                 1
   0.009429949032                 1                 1       0.999999919      0.9961152619      0.8714443251      0.9996843053      0.9999999777                 1                 1                 1                 1                 1                 1                 1                 1                 1                 1
   0.009680381446                 1                 1      0.9999999069      0.9958690927      0.8655071553      0.9996564878      0.9999999742                 1                 1                 1                 1                 1                 1                 1                 1                 1                 1
   0.009930813859                 1                 1      0.9999998933      0.9956123883      0.8593945575       0.999627095      0.9999999701                 1                 1                 1                 1                 1                 1                 1                 1                 1                 1
    0.01018124627                 1                 1      0.9999998782      0.9953447664      0.8531023653      0.9995960528      0.9999999655                 1                 1                 1                 1                 1                 1                 1                 1                 1                 1
    0.01043167869                 1                 1      0.9999998613      0.9950658089      0.8466262968      0.9995632753      0.9999999604                 1                 1                 1                 1                 1                 1                 1                 1                 1                 1
     0.0106821111                 1                 1      0.9999998427      0.9947750698      0.8399620101      0.9995286641      0.9999999545                 1                 1                 1                 1                 1                 1                 1                 1                 1                 1
    0.01093254351                 1                 1      0.9999998219      0.9944720818       0.833105148      0.9994921103       0.999999948                 1                 1                 1                 1                 1                 1                 1                 1                 1                 1
    0.01118297593                 1                 1      0.9999997989      0.9941563598      0.8260513355      0.9994535968      0.9999999408                 1                 1                 1                 1                 1                 1                 1                 1                 1                 1
    0.01143340834                 1                 1      0.9999997733      0.9938274048      0.8187962189      0.9994128415      0.9999999328                 1                 1                 1                 1                 1                 1                 1                 1                 1                 1
    0.01168384075                 1                 1      0.9999997468      0.9934846985        0.81133536      0.9993697676      0.9999999239                 1                 1                 1                 1                 1                 1                 1                 1                 1                 1
    0.01193427317                 1                 1      0.9999997197      0.9931276965        0.80366429      0.9993242695      0.9999999138                 1                 1                 1                 1                 1                 1                 1                 1                 1                 1
    0.01218470558                 1                 1      0.9999996914      0.9927558426       0.795778598      0.9992762387      0.9999999025                 1                 1                 1                 1                 1                 1                 1                 1                 1                 1
    0.01243513799                 1                 1      0.9999996602      0.9923685123      0.7876737344      0.9992255575      0.9999998897                 1                 1                 1                 1                 1                 1                 1                 1                 1                 1
    0.01268557041                 1                 1      0.9999996249      0.9919650461      0.7793452773      0.9991721101      0.9999998754                 1                 1                 1                 1                 1                 1                 1                 1                 1                 1
    0.01293600282                 1                 1      0.9999995839      0.9915447485      0.7707890412      0.9991157817      0.9999998593                 1                 1                 1                 1                 1                 1                 1                 1                 1                 1
    0.01318643523                 1                 1      0.9999995341      0.9911068918      0.7620012796      0.9990564567      0.9999998413                 1                 1                 1                 1                 1                 1                 1                 1                 1                 1
    0.01343686765                 1                 1      0.9999994776      0.9906507168      0.7529790835      0.9989940171      0.9999998211                 1                 1                 1                 1                 1                 1                 1                 1                 1                 1
    0.01368730006                 1                 1       0.999999413      0.9901754537      0.7437212921       0.998928347      0.9999997986                 1                 1                 1                 1                 1                 1                 1                 1                 1                 1
    0.01393773247                 1                 1      0.9999993413       0.989680354      0.7342309372      0.9988593176      0.9999997734                 1                 1                 1                 1                 1                 1                 1                 1                 1                 1
    0.01418816489                 1                 1      0.9999992618      0.9891648105      0.7245241515       0.998786807      0.9999997452                 1                 1                 1                 1                 1                 1                 1                 1                 1                 1
     0.0144385973                 1                 1       0.999999174      0.9886290708      0.7146911125       0.998710761      0.9999997138                 1                 1                 1                 1                 1                 1                 1                 1                 1                 1
    0.01468902971                 1                 1      0.9999990771       0.988087187       0.706369304       0.998632017      0.9999996787                 1                 1                 1                 1                 1                 1                 1                 1                 1                 1
    0.01493946213                 1                 1      0.9999989709      0.9875846034      0.7037030232      0.9985543373      0.9999996397                 1                 1                 1                 1                 1                 1                 1                 1                 1                 1
    0.01518989454                 1                 1      0.9999988561      0.9871157917      0.7018204876      0.9984814299       0.999999597                 1                 1                 1                 1                 1                 1                 1                 1                 1                 1
    0.01544032695                 1                 1      0.9999987348      0.9866696208      0.6999816349      0.9984145588      0.9999995513                 1                 1                 1                 1                 1                 1                 1                 1                 1                 1
    0.01569075937                 1                 1      0.9999986103      0.9862294907      0.6981207942      0.9983519467      0.9999995037                 1                 1                 1                 1                 1                 1                 1                 1                 1                 1
    0.01594119178                 1                 1      0.9999984864      0.9857834328      0.6962142575      0.9982903689      0.9999994555                 1                 1                 1                 1                 1                 1                 1                 1                 1                 1
    0.01619162419                 1                 1      0.9999983662      0.9853262642      0.6942643394      0.9982270318       0.999999408                 1                 1                 1                 1                 1                 1                 1                 1                 1                 1
    0.01644205661                 1                 1      0.9999982509      0.9848586172      0.6922871113      0.9981605964      0.9999993617                 1                 1                 1                 1                 1                 1                 1                 1                 1                 1