# Probe 0 (2.4 2.295 1.5)
#           Probe                 0
#            Time
    1.1999904e-06            293.15
  2.639965056e-06            293.15
  4.367944597e-06            293.15
  6.441505713e-06            293.15
   8.92973777e-06            293.15
  1.191552707e-05            293.15
  1.549838863e-05            293.15
  1.979776087e-05            293.15
  2.495674128e-05            293.15
  3.114713435e-05            293.15
  3.857523794e-05            293.15
  4.748896225e-05            293.15
  5.818543142e-05            293.15
  7.102064463e-05            293.15
  8.642131685e-05            293.15
  0.0001049009832            293.15
  0.0001270765827            293.15
  0.0001536896689            293.15
  0.0001856219625            293.15
  0.0002239407148            293.15
  0.0002699019884            293.15
  0.0003250351347            293.15
  0.0003911802278            293.15
  0.0004705543394            293.15
  0.0005658032734            293.15
  0.0006799700095            293.15
  0.0008169700928            293.15
  0.0009814618316            293.15
   0.001179117227            293.15
   0.001416111804       293.1500002
   0.001666544217       293.1500009
   0.001916976631       293.1500039
   0.002167409044       293.1500131
   0.002417841458        293.150038
   0.002668273871       293.1500975
   0.002918706284       293.1502267
   0.003169138698        293.150484
   0.003419571111        293.150959
   0.003670003524       293.1517783
   0.003920435938       293.1531058
   0.004170868351       293.1551345
   0.004421300765       293.1580666
   0.004671733178        293.162079
   0.004922165591       293.1672781
   0.005172598005       293.1736425
   0.005423030418       293.1809676
   0.005673462831       293.1888235
   0.005923895245       293.1965454
   0.006174327658       293.2032749
   0.006424760072       293.2080658
   0.006675192485       293.2100516
   0.006925624898       293.2086473
   0.007176057312        293.203736
   0.007426489725       293.1958266
   0.007676922139       293.1859672
   0.007927354552       293.1756459
   0.008177786965       293.1665283
   0.008428219379       293.1601459
   0.008678651792       293.1576272
   0.008929084205        293.159524
   0.009179516619       293.1658506
   0.009429949032       293.1760816
   0.009680381446       293.1891878
   0.009930813859       293.2037685
    0.01018124627       293.2182102
    0.01043167869       293.2308081
     0.0106821111        293.239884
    0.01093254351       293.2439825
    0.01118297593       293.2421618
    0.01143340834       293.2343063
    0.01168384075       293.2212801
    0.01193427317       293.2048089
    0.01218470558       293.1872307
    0.01243513799       293.1711438
    0.01268557041       293.1590344
    0.01293600282       293.1528698
    0.01318643523       293.1538009
    0.01343686765        293.161886
    0.01368730006       293.1760344
    0.01393773247       293.1941901
    0.01418816489       293.2138397
     0.0144385973       293.2325226
    0.01468902971       293.2482927
    0.01493946213       293.2600171
    0.01518989454       293.2674822
    0.01544032695       293.2712817
    0.01569075937       293.2724698
    0.01594119178        293.272227
    0.01619162419       293.2714744
    0.01644205661       293.2706517
    0.01669248902       293.2697127
    0.01694292143       293.2682533
    0.01719335385       293.2656958
    0.01744378626       293.2615151
    0.01769421867       293.2554216
    0.01794465109        293.247542
     0.0181950835       293.2385134
    0.01844551591       293.2294114
    0.01869594833       293.2215384
    0.01894638074        293.216146
    0.01919681315       293.2141654
    0.01944724557       293.2160033
    0.01969767798       293.2214216
    0.01994811039        293.229589
    0.02019854281       293.2392317
    0.02044897522       293.2489292
    0.02069940763        293.257531
    0.02094984005       293.2643449
    0.02120027246       293.2692223
    0.02145070487       293.2725166
    0.02170113729       293.2749144
     0.0219515697       293.2771676
    0.02220200211       293.2798314
    0.02245243453       293.2829237
    0.02270286694       293.2859342
    0.02295329935       293.2880312
    0.02320373177       293.2883268
    0.02345416418       293.2861825
    0.02370459659       293.2814326
    0.02395502901       293.2744675
    0.02420546142       293.2661903
    0.02445589384       293.2578816
    0.02470632625       293.2510234
    0.02495675866       293.2469539
    0.02520719108       293.2465492
    0.02545762349       293.2501208
     0.0257080559        293.257372
    0.02595848832       293.2675227
    0.02620892073       293.2794715
    0.02645935314        293.291953
    0.02670978556       293.3037141
    0.02696021797       293.3136695
    0.02721065038       293.3210594
     0.0274610828       293.3254763
    0.02771151521       293.3268193
    0.02796194762       293.3251666
    0.02821238004       293.3207187
    0.02846281245       293.3136796
    0.02871324486        293.304255
    0.02896367728       293.2927417
    0.02921410969       293.2796295
     0.0294645421       293.2656628
    0.02971497452       293.2518165
    0.02996540693       293.2392331
    0.03021583934       293.2290966
    0.03046627176       293.2224814
    0.03071670417       293.2202777
    0.03096713658       293.2231291
      0.031217569       293.2312942
    0.03146800141       293.2445822
    0.03171843382       293.2622902
    0.03196886624       293.2831926
    0.03221929865       293.3056705
    0.03246973106       293.3278853
    0.03272016348       293.3480198
    0.03297059589       293.3644268
     0.0332210283       293.3757625
    0.03347146072       293.3811722
    0.03372189313       293.3804419
    0.03397232554       293.3740799
    0.03422275796       293.3632686
    0.03447319037       293.3496711
    0.03472362278       293.3350407
     0.0349740552       293.3208958
    0.03522448761       293.3083979
    0.03547492002       293.2983025
    0.03572535244       293.2908929
    0.03597578485       293.2859532
    0.03622621726       293.2828781
    0.03647664968       293.2809192
    0.03672708209       293.2794089
     0.0369775145       293.2779678
    0.03722794692       293.2765559
    0.03747837933       293.2754213
    0.03772881174        293.274996
    0.03797924416       293.2757773
    0.03822967657       293.2781986
    0.03848010898       293.2825313
     0.0387305414       293.2888182
    0.03898097381       293.2968368
    0.03923140622       293.3061185
    0.03948183864       293.3160416
    0.03973227105       293.3259495
    0.03998270346       293.3352262
    0.04023313588       293.3433341
    0.04048356829       293.3498199
     0.0407340007       293.3542862
    0.04098443312        293.356386
    0.04123486553       293.3558671
    0.04148529795       293.3526319
    0.04173573036       293.3468004
    0.04198616277       293.3387407
    0.04223659519       293.3290969
     0.0424870276       293.3188022
    0.04273746001       293.3089825
    0.04298789243       293.3007837
    0.04323832484       293.2952159
    0.04348875725       293.2930467
    0.04373918967       293.2947046
    0.04398962208       293.3002076
    0.04424005449       293.3091334
    0.04449048691       293.3206591
    0.04474091932       293.3336618
    0.04499135173       293.3468282
    0.04524178415       293.3588451
    0.04549221656        293.368501
    0.04574264897       293.3748463
    0.04599308139       293.3773182
     0.0462435138       293.3758182
    0.04649394621       293.3706644
    0.04674437863       293.3625467
    0.04699481104       293.3524165
    0.04724524345       293.3413101
    0.04749567587       293.3302409
    0.04774610828       293.3201457
    0.04799654069       293.3117861
    0.04824697311        293.305685
    0.04849740552       293.3021136
    0.04874783793       293.3011211
    0.04899827035       293.3026261
    0.04924870276       293.3063792
    0.04949913517       293.3120888
    0.04974956759       293.3194952
             0.05        293.328317
          0.05025       293.3382191
           0.0505       293.3489045
          0.05075       293.3600182
            0.051       293.3710823
          0.05125       293.3814862
           0.0515       293.3905464
          0.05175       293.3975975
            0.052       293.4020708
          0.05225       293.4035437
           0.0525       293.4017672
          0.05275       293.3966804
            0.053       293.3884369
          0.05325         293.37745
           0.0535       293.3644158
          0.05375       293.3502883
            0.054       293.3362019
          0.05425       293.3233582
           0.0545       293.3128997
          0.05475       293.3057969
            0.055       293.3027493
          0.05525       293.3041327
           0.0555       293.3099085
          0.05575       293.3196714
            0.056       293.3327288
          0.05625       293.3481694
           0.0565       293.3649124
          0.05675        293.381765
            0.057       293.3975217
          0.05725       293.4110997
           0.0575       293.4216763
          0.05775       293.4287718
            0.058       293.4322546
          0.05825       293.4322955
           0.0585       293.4293195
          0.05875       293.4239462
            0.059       293.4169057
          0.05925       293.4089472
           0.0595       293.4007591
          0.05975        293.392888
             0.06       293.3857609
          0.06025       293.3796675
           0.0605       293.3747803
          0.06075       293.3711888
            0.061       293.3689189
          0.06125       293.3679395
           0.0615       293.3681695
          0.06175       293.3694867
            0.062       293.3717537
          0.06225       293.3748596
           0.0625       293.3787058
          0.06275       293.3832059
            0.063       293.3882693
          0.06325       293.3937794
           0.0635       293.3995802
          0.06375        293.405472
            0.064       293.4112238
          0.06425       293.4165808
           0.0645       293.4212812
          0.06475       293.4250595
            0.065       293.4276819
          0.06525       293.4289736
           0.0655       293.4288636
          0.06575        293.427432
            0.066       293.4249358
          0.06625       293.4217984
           0.0665       293.4185861
          0.06675       293.4159577
            0.067       293.4145868
          0.06725       293.4150624
           0.0675       293.4177907
          0.06775       293.4229187
            0.068       293.4302983
          0.06825       293.4394864
           0.0685        293.449784
          0.06875       293.4603154
            0.069       293.4701284
          0.06925       293.4783042
           0.0695        293.484077
          0.06975       293.4869491
             0.07       293.4867666
          0.07025       293.4837483
           0.0705        293.478427
          0.07075       293.4715546
            0.071       293.4639971
          0.07125       293.4566264
           0.0715       293.4502185
          0.07175        293.445376
            0.072        293.442463
          0.07225       293.4416058
           0.0725       293.4427233
          0.07275       293.4455736
            0.073       293.4498126
          0.07325       293.4550552
           0.0735       293.4609282
          0.07375       293.4671074
            0.074       293.4733449
          0.07425       293.4794959
           0.0745       293.4855375
          0.07475       293.4915583
            0.075       293.4977047
          0.07525       293.5040962
           0.0755       293.5107441
          0.07575       293.5174994
            0.076       293.5240353
          0.07625       293.5298718
           0.0765       293.5344463
          0.07675       293.5372211
            0.077       293.5378097
          0.07725        293.536083
           0.0775       293.5322249
          0.07775       293.5267336
    0.07799722222        293.520426
    0.07824444444       293.5141054
    0.07849166667       293.5086387
    0.07873607955       293.5048122
    0.07898049242       293.5030906
     0.0792249053       293.5037665
    0.07946647617       293.5068481
    0.07970804704        293.512182
     0.0799467759       293.5193757
    0.08018550476       293.5280916
    0.08042139161       293.5377678
    0.08065727845       293.5480499
    0.08089032329       293.5583672
    0.08112336813       293.5684222
    0.08135357096       293.5777235
    0.08158096643       293.5859839
    0.08180836191       293.5930796
    0.08203295003        293.598785
    0.08225753816       293.6031207
    0.08247931893       293.6060566
    0.08269832744       293.6076958
    0.08291733596       293.6081735
    0.08313357221       293.6076257
    0.08334980847       293.6062039
    0.08356327246       293.6040949
    0.08377673645       293.6014539
    0.08399020045       293.5984767
    0.08420366444       293.5953935
    0.08441428225       293.5925002
    0.08462490006       293.5900157
    0.08483551786       293.5881887
    0.08504613567       293.5872308
    0.08525382823        293.587285
    0.08546152079       293.5883955
    0.08566921335       293.5905343
    0.08587393888       293.5935388
     0.0860786644       293.5972589
    0.08628338992       293.6014908
    0.08648811545       293.6060408
    0.08668978536       293.6106915
    0.08689145528       293.6154296
     0.0870931252       293.6202389
    0.08729479512        293.625144
    0.08749331395       293.6300935
    0.08769183277       293.6351455
     0.0878903516       293.6402017
    0.08808887043       293.6450642
    0.08828413484       293.6493801
    0.08847939926       293.6529032
    0.08867466368       293.6553107
    0.08886661854       293.6563526
    0.08905857339       293.6559774
    0.08925052824       293.6542641
    0.08944248309       293.6514976
    0.08963101018       293.6482188
    0.08981953727       293.6449869
    0.09000806436       293.6424659
    0.09019659145       293.6412797
    0.09038156142       293.6418878
    0.09056653139       293.6445347
    0.09075150136       293.6492871
    0.09093647134       293.6559967
    0.09112144131       293.6643303
    0.09130263638       293.6736284
    0.09148383146       293.6835552
    0.09166502653       293.6936173
    0.09184622161       293.7033624
    0.09202741669       293.7124432
    0.09220861176        293.720608
    0.09238568877       293.7275553
    0.09256276577       293.7334096
    0.09273984278       293.7381588
    0.09291691978        293.741834
    0.09309399679       293.7444939
    0.09327107379        293.746214
    0.09344361036       293.7470742
    0.09361614693       293.7472286
     0.0937886835       293.7467903
    0.09396122007        293.745877
    0.09413375664       293.7445985
    0.09430629321       293.7430413
    0.09447375517       293.7413189
    0.09464121714       293.7394161
     0.0948086791       293.7373468
    0.09497614107       293.7351314
    0.09514360303       293.7328162
      0.095311065       293.7304879
    0.09547852696       293.7282776
    0.09564000814       293.7264212
    0.09580148932       293.7250195
     0.0959629705       293.7242576
    0.09612445168       293.7242991
    0.09628593286       293.7252581
    0.09644741404       293.7271764
    0.09660889522       293.7300089
     0.0967703764       293.7336262
    0.09693185758       293.7378331
    0.09709333876       293.7423966
    0.09725481994       293.7470777
    0.09741630112       293.7516642
     0.0975777823       293.7559969
    0.09773926348       293.7599879
    0.09790074466       293.7636272
    0.09806222584       293.7669766
    0.09822370702       293.7701507
     0.0983851882       293.7732935
    0.09854666938       293.7765463
    0.09870815056        293.780021
    0.09886963174       293.7837802
    0.09903111292       293.7878266
     0.0991925941       293.7921005
    0.09935407528       293.7964892
    0.09951555646       293.8008449
    0.09967703764       293.8050063
    0.09983851882       293.8088217
              0.1        293.812167
     0.1001497006       293.8147762
      0.100298953       293.8168662
     0.1004477585       293.8184343
     0.1005961185       293.8195053
     0.1007435928        293.820131
     0.1008906269       293.8203904
      0.101037222       293.8203772
     0.1011833795       293.8201931
     0.1013295371       293.8199436
      0.101475257       293.8197331
     0.1016205407       293.8196673
     0.1017653894        293.819846
     0.1019098044       293.8203579
     0.1020542194        293.821279
     0.1021982007       293.8226582
     0.1023417497       293.8245164
     0.1024848675       293.8268407
     0.1026275556       293.8295857
     0.1027698152       293.8326784
     0.1029116476       293.8360288
      0.103053054       293.8395434
     0.1031936138       293.8431231
     0.1033337526       293.8467004
      0.103473472       293.8502078
     0.1036127729       293.8535897
     0.1037516568       293.8568047
     0.1038901249       293.8598246
     0.1040281785       293.8626314
     0.1041658186       293.8652136
     0.1043030467       293.8675659
      0.104439864       293.8696914
     0.1045762715       293.8716022
     0.1047122707       293.8733212
     0.1048478627       293.8748812
     0.1049830488       293.8763238
     0.1051178301       293.8776949
     0.1052522078       293.8790394
     0.1053861833       293.8803948
     0.1055197576       293.8817863
     0.1056529319       293.8832246
     0.1057857076       293.8847071
     0.1059180857       293.8862213
     0.1060500675       293.8877494
     0.1061816541       293.8892711
     0.1063128468       293.8907639
     0.1064436466       293.8922038
     0.1065740549       293.8935656
     0.1067036846       293.8948207
     0.1068329273       293.8959495
       0.10696217        293.896933
     0.1070910258       293.8977482
     0.1072194958       293.8983795
     0.1073475811       293.8988186
      0.107475283       293.8990714
     0.1076029848       293.8991661
     0.1077303032       293.8991587
     0.1078572392       293.8991412
     0.1079837941       293.8992276
     0.1081103489       293.8995521
     0.1082365225        293.900254
     0.1083623161       293.9014672
     0.1084881098        293.903305
     0.1086135233       293.9058521
      0.108738558       293.9091507
     0.1088632149       293.9131909
     0.1089874952       293.9179085
     0.1091114001       293.9231871
     0.1092353049       293.9288823
     0.1093588343       293.9347816
     0.1094819894       293.9406689
     0.1096051444       293.9463423
     0.1097279251       293.9515779
     0.1098503326       293.9562001
     0.1099723681       293.9600758
     0.1100944036       293.9631286
      0.110216067       293.9653123
     0.1103373595       293.9666384
     0.1104582821       293.9671538
     0.1105788362       293.9669271
     0.1106990226        293.966037
     0.1108188427       293.9645612
     0.1109386627       293.9625658
     0.1110581164       293.9601215
     0.1111772047       293.9572912
     0.1112959288       293.9541372
      0.111414653       293.9507156
     0.1115330129       293.9471112
     0.1116513729       293.9433994
     0.1117693687       293.9396907
     0.1118870014       293.9360964
     0.1120046341       293.9327265
     0.1121219038       293.9297159
     0.1122388115       293.9271831
     0.1123557192       293.9252271
     0.1124722649       293.9239375
     0.1125884499        293.923365
     0.1127046348       293.9235268
     0.1128204589       293.9244087
      0.112936283       293.9259721
     0.1130517463       293.9281544
     0.1131672096       293.9309021
     0.1132823121       293.9341589
     0.1133974146       293.9379102
     0.1135121562       293.9421481
     0.1136268978       293.9469153
     0.1137412787       293.9522422
     0.1138552998       293.9581713
     0.1139693209       293.9647452
     0.1140829824         293.97193
     0.1141966438       293.9796799
     0.1143099456       293.9878405
     0.1144228888       293.9962198
      0.114535832       294.0046043
     0.1146484167       294.0126981
     0.1147610013       294.0202542
     0.1148732275       294.0270036
     0.1149850962        294.032761
     0.1150966086       294.0374224
      0.115208121       294.0409844
     0.1153192772       294.0435084
     0.1154300782       294.0451503
     0.1155408792       294.0461232
     0.1156513251       294.0466591
     0.1157614171       294.0469902
     0.1158711561       294.0473104
     0.1159808951       294.0477584
     0.1160902813       294.0483967
     0.1161996675       294.0492136
     0.1163087009       294.0501227
     0.1164173825       294.0509864
     0.1165260641       294.0516396
      0.116634394       294.0519099
     0.1167423733       294.0516515
     0.1168500031       294.0507632
      0.116957633       294.0491952
     0.1170649134       294.0469686
     0.1171718455       294.0441621
     0.1172787776        294.040893
     0.1173853614        294.037333
      0.117491598       294.0336623
     0.1175978346       294.0300473
      0.117703724       294.0266603
     0.1178096135       294.0236225
     0.1179151557       294.0210359
      0.118020698         294.01894
      0.118125893        294.017346
     0.1182307421       294.0162198
     0.1183355911       294.0155004
     0.1184400941       294.0151198
     0.1185442522        294.015003
     0.1186484103       294.0150844
     0.1187522235       294.0153168
     0.1188560367       294.0156807
     0.1189595051       294.0161859
     0.1190629734       294.0168749
     0.1191660968       294.0178118
     0.1192692202       294.0190842
     0.1193723436        294.020788
      0.119475121       294.0230107
     0.1195778984       294.0258447
     0.1196803297       294.0293468
      0.119782761       294.0335668
     0.1198848463       294.0384907
     0.1199869316       294.0440893
     0.1200886708       294.0502489
     0.1201900651       294.0568255
     0.1202914594       294.0636604
     0.1203925089       294.0705221
     0.1204932147        294.077189
     0.1205939204       294.0834639
     0.1206942825       294.0891243
     0.1207946445       294.0940183
     0.1208946628        294.097999
     0.1209946812       294.1009954
     0.1210943558       294.1029612
     0.1211940304       294.1039164
     0.1212933614       294.1039174
     0.1213926923       294.1030653
     0.1214916795       294.1014969
     0.1215906668        294.099367
     0.1216893103       294.0968448
     0.1217879538       294.0940886
     0.1218862536       294.0912706
     0.1219845534       294.0885246
     0.1220825095       294.0859763
     0.1221804656       294.0837087
      0.122278078       294.0817976
     0.1223756904       294.0802792
     0.1224733028       294.0791727
     0.1225705703       294.0784702
     0.1226678378       294.0781262
     0.1227647604        294.078065
     0.1228616829       294.0781858
     0.1229586055       294.0783679
     0.1230551819         294.07848
     0.1231517583       294.0783954
     0.1232483347       294.0780028
     0.1233449111       294.0772207
     0.1234411389       294.0760147
     0.1235373666       294.0743943
     0.1236335944       294.0724262
     0.1237294722        294.070239
     0.1238253501       294.0679909
     0.1239212279       294.0658795
     0.1240171057       294.0641183
     0.1241126311       294.0629202
     0.1242081564       294.0624629
     0.1243036818       294.0628907
     0.1243992071       294.0642914
     0.1244943774        294.066676
     0.1245895476       294.0699996
     0.1246847178        294.074147
     0.1247798881       294.0789448
     0.1248747005        294.084155
      0.124969513       294.0895537
     0.1250643254       294.0948957
     0.1251587787       294.0999363
      0.125253232       294.1045096
     0.1253476854       294.1084843
     0.1254417782       294.1117828
      0.125535871       294.1144228
     0.1256299638       294.1164694
     0.1257236947       294.1180352
     0.1258174256       294.1192841
     0.1259111565        294.120392
     0.1260048874       294.1215369
     0.1260982536       294.1228759
     0.1261916198        294.124546
      0.126284986       294.1266408
      0.126377986       294.1291976
     0.1264709861       294.1322244
       0.12656362       294.1356617
     0.1266562539       294.1394338
     0.1267485217       294.1434041
     0.1268407895       294.1474423
     0.1269330572       294.1513913
     0.1270249574        294.155081
     0.1271168576       294.1583872
     0.1272083902       294.1611859
     0.1272999227        294.163414
     0.1273910877       294.1650285
     0.1274822527       294.1660421
     0.1275734176       294.1664932
     0.1276642135       294.1664512
     0.1277550094       294.1660083
     0.1278454362       294.1652708
      0.127935863       294.1643464
     0.1280262898       294.1633434
      0.128116346       294.1623663
     0.1282064021       294.1614957
     0.1282964583       294.1607968
     0.1283861424        294.160312
     0.1284758264       294.1600529
     0.1285655105       294.1600089
     0.1286548209       294.1601455
     0.1287441312       294.1604106
     0.1288334416       294.1607406
      0.128922752       294.1610636
     0.1290116855       294.1613034
     0.1291006191       294.1613861
     0.1291895526       294.1612384
     0.1292781077       294.1607952
     0.1293666628       294.1599984
     0.1294552179       294.1588028
     0.1295433929       294.1571887
     0.1296315679       294.1551474
      0.129719743       294.1527217
     0.1298075363       294.1499637
     0.1298953296       294.1469382
     0.1299831229       294.1437478
     0.1300709163       294.1405202
     0.1301583245       294.1374163
     0.1302457328       294.1345835
      0.130333141         294.13219
     0.1304205493        294.130398
     0.1305079576       294.1293518
     0.1305949756       294.1291625
     0.1306819937       294.1298929
     0.1307690117       294.1315642
     0.1308560298       294.1341487
     0.1309430478       294.1375741
     0.1310296703       294.1417103
     0.1311162928       294.1464336
     0.1312029153       294.1515848
     0.1312891405       294.1569665
     0.1313753657       294.1624256
     0.1314615908       294.1677919
     0.1315474168       294.1728899
     0.1316332427       294.1776204
     0.1317190687       294.1818906
     0.1318048947       294.1856392
     0.1318903177       294.1888196
     0.1319757407       294.1914429
     0.1320611638       294.1935224
     0.1321465868       294.1950877
     0.1322320098       294.1961823
     0.1323170241       294.1968556
     0.1324020384       294.1971695
     0.1324870528       294.1971831
     0.1325720671       294.1969595
     0.1326570814       294.1965637
      0.132741681       294.1960646
     0.1328262806       294.1955264
     0.1329108802       294.1950131
     0.1329954798       294.1945855
     0.1330796606       294.1942975
     0.1331638414       294.1941891
     0.1332480222       294.1942901
      0.133332203       294.1946158
     0.1334159607       294.1951628
     0.1334997185       294.1959163
     0.1335834763       294.1968468
     0.1336668089       294.1979082
     0.1337501415       294.1990576
     0.1338334741       294.2002459
     0.1339168067       294.2014263
     0.1339997098       294.2025551
     0.1340826128       294.2036108
     0.1341655159       294.2045781
     0.1342484189        294.205453
      0.134331322       294.2062401
     0.1344142251       294.2069488
     0.1344971281       294.2075878
     0.1345795902       294.2081584
     0.1346620523        294.208658
     0.1347445144       294.2090687
     0.1348269765       294.2093627
     0.1349094385       294.2095035
     0.1349919006       294.2094477
     0.1350739121       294.2091523
     0.1351559236         294.20858
      0.135237935       294.2077097
     0.1353199465       294.2065449
      0.135401958        294.205115
     0.1354839695       294.2034785
     0.1355655202       294.2017273
     0.1356470709       294.1999511
     0.1357286217       294.1982597
     0.1358101724       294.1967702
     0.1358917231       294.1955963
     0.1359732739       294.1948384
     0.1360548246       294.1945715
     0.1361363753       294.1948348
     0.1362179261       294.1956238
     0.1362989971       294.1968594
     0.1363800681        294.198467
     0.1364611391       294.2003283
     0.1365422101       294.2023022
     0.1366232812       294.2042416
     0.1367038638       294.2060013
     0.1367844465       294.2074858
     0.1368650291        294.208626
     0.1369456117       294.2093987
     0.1370261944       294.2098305
      0.137106777       294.2099916
     0.1371873597        294.209986
     0.1372679423       294.2099405
      0.137348525       294.2099915
     0.1374291076       294.2102779
     0.1375096902       294.2109255
     0.1375902729       294.2120323
     0.1376708555       294.2136677
     0.1377514382       294.2158564
     0.1378314941       294.2185538
     0.1379115501       294.2216994
     0.1379916061       294.2251791
      0.138071662       294.2288459
      0.138151718       294.2325317
     0.1382317739       294.2360618
     0.1383118299       294.2392727
     0.1383918859         294.24203
     0.1384713935       294.2442306
     0.1385509011       294.2458597
     0.1386304087       294.2469378
     0.1387099164       294.2475384
      0.138789424       294.2477779
     0.1388689316       294.2478018
     0.1389484393       294.2477681
      0.139027379         294.24783
     0.1391063187       294.2481215