# Probe 0 (4.8 0.005 1.5)
#           Probe                 0
#            Time
    1.1999904e-06                 1
  2.639965056e-06                 1
  4.367944597e-06                 1
  6.441505713e-06                 1
   8.92973777e-06                 1
  1.191552707e-05                 1
  1.549838863e-05                 1
  1.979776087e-05                 1
  2.495674128e-05                 1
  3.114713435e-05                 1
  3.857523794e-05                 1
  4.748896225e-05                 1
  5.818543142e-05                 1
  7.102064463e-05                 1
  8.642131685e-05                 1
  0.0001049009832                 1
  0.0001270765827                 1
  0.0001536896689                 1
  0.0001856219625                 1
  0.0002239407148                 1
  0.0002699019884                 1
  0.0003250351347                 1
  0.0003911802278                 1
  0.0004705543394                 1
  0.0005658032734                 1
  0.0006799700095                 1
  0.0008169700928                 1
  0.0009814618316                 1
   0.001179117227                 1
   0.001416111804                 1
   0.001666544217                 1
   0.001916976631                 1
   0.002167409044                 1
   0.002417841458                 1
   0.002668273871                 1
   0.002918706284                 1
   0.003169138698                 1
   0.003419571111                 1
   0.003670003524                 1
   0.003920435938                 1
   0.004170868351                 1
   0.004421300765                 1
   0.004671733178                 1
   0.004922165591                 1
   0.005172598005                 1
   0.005423030418                 1
   0.005673462831                 1
   0.005923895245                 1
   0.006174327658                 1
   0.006424760072                 1
   0.006675192485                 1
   0.006925624898                 1
   0.007176057312                 1
   0.007426489725                 1
   0.007676922139                 1
   0.007927354552                 1
   0.008177786965                 1
   0.008428219379                 1
   0.008678651792                 1
   0.008929084205                 1
   0.009179516619                 1
   0.009429949032                 1
   0.009680381446                 1
   0.009930813859                 1
    0.01018124627                 1
    0.01043167869                 1
     0.0106821111                 1
    0.01093254351                 1
    0.01118297593                 1
    0.01143340834                 1
    0.01168384075                 1
    0.01193427317                 1
    0.01218470558                 1
    0.01243513799                 1
    0.01268557041                 1
    0.01293600282                 1
    0.01318643523                 1
    0.01343686765                 1
    0.01368730006                 1
    0.01393773247                 1
    0.01418816489                 1
     0.0144385973                 1
    0.01468902971                 1
    0.01493946213                 1
    0.01518989454                 1
    0.01544032695                 1
    0.01569075937                 1
    0.01594119178                 1
    0.01619162419                 1
    0.01644205661                 1
    0.01669248902                 1
    0.01694292143                 1
    0.01719335385                 1
    0.01744378626                 1
    0.01769421867                 1
    0.01794465109                 1
     0.0181950835                 1
    0.01844551591                 1
    0.01869594833                 1
    0.01894638074                 1
    0.01919681315                 1
    0.01944724557                 1
    0.01969767798                 1
    0.01994811039                 1
    0.02019854281                 1
    0.02044897522                 1
    0.02069940763                 1
    0.02094984005                 1
    0.02120027246                 1
    0.02145070487                 1
    0.02170113729                 1
     0.0219515697                 1
    0.02220200211                 1
    0.02245243453                 1
    0.02270286694                 1
    0.02295329935                 1
    0.02320373177                 1
    0.02345416418                 1
    0.02370459659                 1
    0.02395502901                 1
    0.02420546142                 1
    0.02445589384                 1
    0.02470632625                 1
    0.02495675866                 1
    0.02520719108                 1
    0.02545762349                 1
     0.0257080559                 1
    0.02595848832                 1
    0.02620892073                 1
    0.02645935314                 1
    0.02670978556                 1
    0.02696021797                 1
    0.02721065038                 1
     0.0274610828                 1
    0.02771151521                 1
    0.02796194762                 1
    0.02821238004                 1
    0.02846281245                 1
    0.02871324486                 1
    0.02896367728                 1
    0.02921410969                 1
     0.0294645421                 1
    0.02971497452                 1
    0.02996540693                 1
    0.03021583934                 1
    0.03046627176                 1
    0.03071670417                 1
    0.03096713658                 1
      0.031217569                 1
    0.03146800141                 1
    0.03171843382                 1
    0.03196886624                 1
    0.03221929865                 1
    0.03246973106                 1
    0.03272016348                 1
    0.03297059589                 1
     0.0332210283                 1
    0.03347146072                 1
    0.03372189313                 1
    0.03397232554                 1
    0.03422275796                 1
    0.03447319037                 1
    0.03472362278                 1
     0.0349740552                 1
    0.03522448761                 1
    0.03547492002                 1
    0.03572535244                 1
    0.03597578485                 1
    0.03622621726                 1
    0.03647664968                 1
    0.03672708209                 1
     0.0369775145                 1
    0.03722794692                 1
    0.03747837933                 1
    0.03772881174                 1
    0.03797924416                 1
    0.03822967657                 1
    0.03848010898                 1
     0.0387305414                 1
    0.03898097381                 1
    0.03923140622                 1
    0.03948183864                 1
    0.03973227105                 1
    0.03998270346                 1
    0.04023313588                 1
    0.04048356829                 1
     0.0407340007                 1
    0.04098443312                 1
    0.04123486553                 1
    0.04148529795                 1
    0.04173573036                 1
    0.04198616277                 1
    0.04223659519                 1
     0.0424870276                 1
    0.04273746001                 1
    0.04298789243                 1
    0.04323832484                 1
    0.04348875725                 1
    0.04373918967                 1
    0.04398962208                 1
    0.04424005449                 1
    0.04449048691                 1
    0.04474091932                 1
    0.04499135173                 1
    0.04524178415                 1
    0.04549221656                 1
    0.04574264897                 1
    0.04599308139                 1
     0.0462435138                 1
    0.04649394621                 1
    0.04674437863                 1
    0.04699481104                 1
    0.04724524345                 1
    0.04749567587                 1
    0.04774610828                 1
    0.04799654069                 1
    0.04824697311                 1
    0.04849740552                 1
    0.04874783793                 1
    0.04899827035                 1
    0.04924870276                 1
    0.04949913517                 1
    0.04974956759                 1
             0.05                 1
          0.05025                 1
           0.0505                 1
          0.05075                 1
            0.051                 1
          0.05125                 1
           0.0515                 1
          0.05175                 1
            0.052                 1
          0.05225                 1
           0.0525                 1
          0.05275                 1
            0.053                 1
          0.05325                 1
           0.0535                 1
          0.05375                 1
            0.054                 1
          0.05425                 1
           0.0545                 1
          0.05475                 1
            0.055                 1
          0.05525                 1
           0.0555                 1
          0.05575                 1
            0.056                 1
          0.05625                 1
           0.0565                 1
          0.05675                 1
            0.057                 1
          0.05725                 1
           0.0575                 1
          0.05775                 1
            0.058                 1
          0.05825                 1
           0.0585                 1
          0.05875                 1
            0.059                 1
          0.05925                 1
           0.0595                 1
          0.05975                 1
             0.06                 1
          0.06025                 1
           0.0605                 1
          0.06075                 1
            0.061                 1
          0.06125                 1
           0.0615                 1
          0.06175                 1
            0.062                 1
          0.06225                 1
           0.0625                 1
          0.06275                 1
            0.063                 1
          0.06325                 1
           0.0635                 1
          0.06375                 1
            0.064                 1
          0.06425                 1
           0.0645                 1
          0.06475                 1
            0.065                 1
          0.06525                 1
           0.0655                 1
          0.06575                 1
            0.066                 1
          0.06625                 1
           0.0665                 1
          0.06675                 1
            0.067                 1
          0.06725                 1
           0.0675                 1
          0.06775                 1
            0.068                 1
          0.06825                 1
           0.0685                 1
          0.06875                 1
            0.069                 1
          0.06925                 1
           0.0695                 1
          0.06975                 1
             0.07                 1
          0.07025                 1
           0.0705                 1
          0.07075                 1
            0.071                 1
          0.07125                 1
           0.0715                 1
          0.07175                 1
            0.072                 1
          0.07225                 1
           0.0725                 1
          0.07275      0.9999999999
            0.073      0.9999999999
          0.07325      0.9999999999
           0.0735      0.9999999999
          0.07375      0.9999999999
            0.074      0.9999999999
          0.07425      0.9999999999
           0.0745      0.9999999999
          0.07475      0.9999999999
            0.075      0.9999999999
          0.07525      0.9999999999
           0.0755      0.9999999999
          0.07575      0.9999999999
            0.076      0.9999999999
          0.07625      0.9999999998
           0.0765      0.9999999998
          0.07675      0.9999999998
            0.077      0.9999999998
          0.07725      0.9999999998
           0.0775      0.9999999998
          0.07775      0.9999999997
            0.078      0.9999999997
          0.07825      0.9999999997
           0.0785      0.9999999997
          0.07875      0.9999999996
            0.079      0.9999999996
          0.07925      0.9999999996
           0.0795      0.9999999995
          0.07975      0.9999999995
             0.08      0.9999999995
          0.08025      0.9999999994
           0.0805      0.9999999994
          0.08075      0.9999999993
            0.081      0.9999999993
    0.08124675325      0.9999999992
    0.08149350649      0.9999999991
    0.08173701299      0.9999999991
    0.08197731545       0.999999999
    0.08221761791      0.9999999989
    0.08245471634      0.9999999988
    0.08269181476      0.9999999988
    0.08292570916      0.9999999987
    0.08315960355      0.9999999986
    0.08339029392      0.9999999985
    0.08362098428      0.9999999983
    0.08385167464      0.9999999982
    0.08407911584      0.9999999981
    0.08430655705       0.999999998
    0.08453399825      0.9999999978
     0.0847581432      0.9999999977
    0.08498228815      0.9999999975
    0.08520643311      0.9999999973
    0.08543057806      0.9999999971
    0.08565132688      0.9999999969
    0.08587207569      0.9999999967
    0.08609282451      0.9999999965
    0.08631357333      0.9999999963
    0.08653432215       0.999999996
     0.0867515105      0.9999999957
    0.08696869885      0.9999999954
     0.0871858872      0.9999999951
    0.08739945575      0.9999999948
     0.0876130243      0.9999999945
    0.08782659284      0.9999999941
    0.08804016139      0.9999999937
    0.08824998312      0.9999999933
    0.08845980485      0.9999999928
    0.08866962658      0.9999999923
    0.08887563337      0.9999999918
    0.08908164016      0.9999999913
    0.08928764695      0.9999999907
    0.08949365374      0.9999999901
    0.08969569886      0.9999999895
    0.08989774398      0.9999999888
     0.0900997891      0.9999999881
    0.09030183422      0.9999999873
    0.09049975597      0.9999999865
    0.09069767772      0.9999999856
    0.09089559947      0.9999999847
    0.09109352122      0.9999999838
    0.09129144297      0.9999999827
    0.09148936472      0.9999999816
    0.09168278825      0.9999999805
    0.09187621178      0.9999999792
    0.09206963531      0.9999999779
    0.09226305884      0.9999999765
    0.09245648237       0.999999975
     0.0926499059      0.9999999735
    0.09283836985      0.9999999718
     0.0930268338      0.9999999701
    0.09321529775      0.9999999682
     0.0934037617      0.9999999662
    0.09359222565      0.9999999641
    0.09378068961      0.9999999619
     0.0939636105      0.9999999596
    0.09414653139      0.9999999572
    0.09432945229      0.9999999546
    0.09451237318      0.9999999519
    0.09469529408       0.999999949
    0.09487821497       0.999999946
    0.09506113586      0.9999999428
    0.09523752387      0.9999999395
    0.09541391187       0.999999936
    0.09559029988      0.9999999324
    0.09576668788      0.9999999285
    0.09594307589      0.9999999244
    0.09611946389      0.9999999201
     0.0962958519      0.9999999156
     0.0964722399      0.9999999108
    0.09664862791      0.9999999057
    0.09681619651      0.9999999007
    0.09698376512      0.9999998954
    0.09715133372      0.9999998898
    0.09731890233      0.9999998839
    0.09748647093      0.9999998778
    0.09765403953      0.9999998713
    0.09782160814      0.9999998645
    0.09798917674      0.9999998573
    0.09815674535      0.9999998498
    0.09832431395      0.9999998418
    0.09849188256      0.9999998334
    0.09865945116      0.9999998246
    0.09882701977      0.9999998152
    0.09899458837      0.9999998054
    0.09916215698      0.9999997951
    0.09932972558      0.9999997842
    0.09949729419      0.9999997728
    0.09966486279      0.9999997607
     0.0998324314       0.999999748
              0.1      0.9999997347
     0.1001612903      0.9999997212
     0.1003220604      0.9999997071
     0.1004823118      0.9999996924
     0.1006420463      0.9999996769
     0.1008012655      0.9999996608
     0.1009599711      0.9999996439
     0.1011181647      0.9999996262
      0.101275848      0.9999996078
     0.1014330227      0.9999995885
     0.1015896904      0.9999995684
     0.1017458527      0.9999995474
     0.1019015112      0.9999995254
     0.1020566676      0.9999995026
     0.1022113235      0.9999994787
     0.1023654806      0.9999994538
     0.1025191403      0.9999994279
     0.1026723044      0.9999994008
     0.1028249744      0.9999993726
     0.1029771519      0.9999993432
     0.1031288385      0.9999993126
     0.1032800358      0.9999992806
     0.1034307453      0.9999992473
     0.1035809687      0.9999992126
     0.1037307075      0.9999991765
     0.1038799633      0.9999991388
     0.1040287376      0.9999990997
      0.104177032      0.9999990589
      0.104324848      0.9999990165
     0.1044721872      0.9999989725
     0.1046185789      0.9999989268
     0.1047644999      0.9999988793
     0.1049099517        0.99999883
     0.1050549357      0.9999987788
     0.1051994536      0.9999987255
     0.1053435068      0.9999986702
     0.1054870968      0.9999986127
     0.1056302252       0.999998553
     0.1057728932      0.9999984911
     0.1059151026      0.9999984268
     0.1060568547      0.9999983601
      0.106198151       0.999998291
     0.1063389929      0.9999982193
      0.106479382       0.999998145
     0.1066193197      0.9999980681
     0.1067588074      0.9999979884
     0.1068978466      0.9999979059
     0.1070368858      0.9999978202
     0.1071754765      0.9999977315
     0.1073136201      0.9999976397
     0.1074513181      0.9999975447
     0.1075885719      0.9999974464
     0.1077258257      0.9999973443
     0.1078626354      0.9999972387
     0.1079990022      0.9999971295
     0.1081349278      0.9999970166
     0.1082704135      0.9999968998
     0.1084058991      0.9999967787
     0.1085409449      0.9999966534
     0.1086755523      0.9999965238
     0.1088097225      0.9999963899
     0.1089434572      0.9999962514
     0.1090767577      0.9999961083
     0.1092096253      0.9999959604
      0.109342493       0.999995807
     0.1094749279      0.9999956484
     0.1096069314      0.9999954847
     0.1097385049      0.9999953156
     0.1098700784      0.9999951405
     0.1100012219      0.9999949597
     0.1101323655      0.9999947725
      0.110263079      0.9999945793
      0.110393364        0.99999438
      0.110523649      0.9999941738
     0.1106535054      0.9999939612
     0.1107829347      0.9999937421
     0.1109119382      0.9999935162
     0.1110405173      0.9999932836
     0.1111686735      0.9999930441
     0.1112968297      0.9999927967
      0.111424563      0.9999925422
     0.1115518746      0.9999922803
     0.1116791863      0.9999920101
     0.1118060764      0.9999917323
     0.1119329665      0.9999914457
     0.1120594351       0.999991151
     0.1121854835      0.9999908479
     0.1123115319      0.9999905352
     0.1124371601      0.9999902136
     0.1125623695      0.9999898829
     0.1126871616      0.9999895426
     0.1128119537      0.9999891915
     0.1129363285      0.9999888302
     0.1130602873      0.9999884586
      0.113184246       0.999988075
     0.1133077888      0.9999876805
     0.1134313316      0.9999872734
     0.1135544584      0.9999868549
     0.1136771707      0.9999864247
      0.113799883      0.9999859812
     0.1139221807      0.9999855257
     0.1140444784      0.9999850563
     0.1141663615      0.9999845743
     0.1142878314      0.9999840796
     0.1144093014      0.9999835701
     0.1145303582      0.9999830472
      0.114651415      0.9999825088
     0.1147720586      0.9999819561
     0.1148927023      0.9999813869
     0.1150129327      0.9999808027
     0.1151331632      0.9999802009
     0.1152529805       0.999979583
     0.1153723861      0.9999789485
     0.1154917916      0.9999782949
     0.1156107855      0.9999776236
      0.115729369      0.9999769342
     0.1158479525      0.9999762228
     0.1159661256      0.9999754927
     0.1160838899      0.9999747431
     0.1162012467      0.9999739733
     0.1163186035        0.99997318
     0.1164355528      0.9999723655
      0.116552096      0.9999715283
     0.1166682345        0.99997067
     0.1167843731      0.9999697866
      0.116900107      0.9999688807
     0.1170154376       0.999967952
     0.1171307683      0.9999669967
     0.1172456957      0.9999660179
     0.1173602212      0.9999650152
     0.1174747467       0.999963983
     0.1175888704      0.9999629252
     0.1177025937      0.9999618431
      0.117816317      0.9999607313
     0.1179296398      0.9999595909
     0.1180425636      0.9999584222
     0.1181554874      0.9999572204
     0.1182680122       0.999955989
     0.1183805369      0.9999547249
     0.1184930617      0.9999534237
     0.1186051861        0.99995209
     0.1187173104      0.9999507188
     0.1188290343      0.9999493141
     0.1189407582      0.9999478726
     0.1190520816      0.9999463845
     0.1191634051      0.9999448647
     0.1192743281      0.9999432985
     0.1193852511       0.999941698
     0.1194957736      0.9999400658
     0.1196062962      0.9999383917
     0.1197164183      0.9999366796
     0.1198265404      0.9999349189
     0.1199362621      0.9999331063
     0.1200455848      0.9999312463
     0.1201549075      0.9999293476
     0.1202638312       0.999927412
     0.1203727549      0.9999254262
     0.1204812796      0.9999233758
     0.1205898043      0.9999212636
       0.12069793      0.9999190996
     0.1208060557      0.9999168797
     0.1209137824      0.9999146228
     0.1210211117      0.9999122989
     0.1211284409      0.9999099087
     0.1212353726      0.9999074816
     0.1213419082      0.9999050049
     0.1214484439      0.9999024646
     0.1215545835      0.9998998472
     0.1216603285      0.9998971653
     0.1217660736       0.999894412
     0.1218714241        0.99989162
     0.1219767745      0.9998887636
     0.1220817304       0.999885848
     0.1221866863      0.9998828359
     0.1222912477      0.9998797756
      0.122395809      0.9998766409
     0.1225003703      0.9998734053
     0.1226049317      0.9998701062
     0.1227090954      0.9998667426
     0.1228132592      0.9998632694
     0.1229174229      0.9998597278
     0.1230211876        0.99985609
     0.1231249523      0.9998523829
     0.1232287169      0.9998485909
     0.1233320809      0.9998447238
      0.123435445      0.9998407632
      0.123538809      0.9998367074
     0.1236417708      0.9998325672
     0.1237447327      0.9998283297
     0.1238476945      0.9998239925
     0.1239502526      0.9998195664
     0.1240528106      0.9998150381
     0.1241553687      0.9998104067
     0.1242575214      0.9998056465
     0.1243596741      0.9998007943
     0.1244618268      0.9997958355
     0.1245639794       0.999790767
     0.1246657235       0.999785563
     0.1247674676      0.9997802213
     0.1248692117      0.9997747503
     0.1249709558      0.9997691555
     0.1250726999      0.9997634319
     0.1251740303      0.9997576006
     0.1252753608      0.9997516303
     0.1253766913      0.9997455258
     0.1254780218      0.9997392816
     0.1255789353      0.9997329201
     0.1256798488      0.9997264124
     0.1257807623       0.999719755
      0.125881257      0.9997129728
     0.1259817518      0.9997060354
     0.1260818278       0.999698969
     0.1261819039      0.9996917921
     0.1262819799      0.9996844684
     0.1263816355      0.9996770148
      0.126481291      0.9996693947
     0.1265805261      0.9996616352
     0.1266797611      0.9996537031
     0.1267785757      0.9996456289
     0.1268773903      0.9996373757
     0.1269762048      0.9996289409
     0.1270745971      0.9996203594
     0.1271729894      0.9996115932
     0.1272709594      0.9996026788
     0.1273689294      0.9995935114
     0.1274668994      0.9995841949
     0.1275644453      0.9995747395
     0.1276619912      0.9995650239
     0.1277595371      0.9995551549
      0.127856657      0.9995450704
     0.1279537769      0.9995347588
     0.1280508969      0.9995242178
      0.128147589      0.9995135008
      0.128244281      0.9995025699
     0.1283409731      0.9994914053
     0.1284372355      0.9994800684
     0.1285334978      0.9994684903
     0.1286293304      0.9994567253
      0.128725163      0.9994447206
     0.1288209956      0.9994324733
     0.1289163965      0.9994200374
     0.1290117974      0.9994073557
     0.1291067667      0.9993944848
     0.1292017359      0.9993813655
     0.1292967052      0.9993679968
     0.1293912408      0.9993544384
     0.1294857764      0.9993406271
     0.1295803119      0.9993265602
     0.1296744119      0.9993123158
     0.1297685118      0.9992978198
     0.1298626118      0.9992830543
     0.1299567117      0.9992680353
      0.130050372      0.9992528242
     0.1301440322      0.9992373403
     0.1302376924      0.9992215751
     0.1303313526      0.9992055211
      0.130424569       0.999189235
     0.1305177853      0.9991726428
     0.1306110016      0.9991557399
      0.130704218      0.9991385344
     0.1307969862      0.9991210783
     0.1308897543      0.9991032879
     0.1309825225      0.9990851563
     0.1310752907      0.9990666601
     0.1311680589      0.9990478197
     0.1312603723       0.999028731
     0.1313526858      0.9990092823
     0.1314449992      0.9989894456
     0.1315373126      0.9989692245
     0.1316296261      0.9989486351
     0.1317219395       0.998927663
     0.1318137891      0.9989064097
     0.1319056386      0.9988847483
     0.1319974882      0.9988626882
     0.1320893377      0.9988402498
     0.1321811873      0.9988174197
     0.1322725658      0.9987942913
     0.1323639443      0.9987707566
     0.1324553228      0.9987468341
     0.1325462279      0.9987226116
      0.132637133      0.9986979684
      0.132728038      0.9986728989
     0.1328184672      0.9986475294
     0.1329088963      0.9986217197
     0.1329993254      0.9985954596
     0.1330892761      0.9985688814
     0.1331792267      0.9985418376
     0.1332691774      0.9985143187
      0.133359128      0.9984863162
     0.1334485951      0.9984579783
     0.1335380621      0.9984291484
     0.1336275292      0.9983998208
     0.1337169962      0.9983699906
     0.1338059744      0.9983398196
     0.1338949526      0.9983091424
     0.1339839307      0.9982779533
     0.1340729089      0.9982462078
     0.1341613927      0.9982141059
     0.1342498766      0.9981815153
     0.1343383604      0.9981484058
     0.1344268443      0.9981147609
     0.1345153281      0.9980805243
     0.1346038119      0.9980457134
     0.1346917902      0.9980105312
     0.1347797684      0.9979747723
     0.1348677466      0.9979384272
     0.1349557248      0.9979014847
      0.135043703      0.9978639342
     0.1351316812      0.9978257643
     0.1352191419      0.9977871945
     0.1353066026      0.9977479921
     0.1353940633      0.9977081472
      0.135481524      0.9976676504
     0.1355689847      0.9976264926
     0.1356564454       0.997584665
     0.1357439061      0.9975421592
     0.1358308335      0.9974992325
     0.1359177609      0.9974556199
     0.1360046883      0.9974113136
     0.1360916157      0.9973663057
     0.1361785431      0.9973205889
     0.1362654705      0.9972741537
     0.1363518512      0.9972272903
     0.1364382319      0.9971796999
     0.1365246126      0.9971313728
     0.1366109933      0.9970822974
      0.136697374      0.9970324623
     0.1367837547      0.9969818541
     0.1368701354      0.9969305577
     0.1369559515      0.9968787519
     0.1370417676      0.9968261333
     0.1371275837      0.9967727024
     0.1372133998      0.9967184493
     0.1372992159       0.996663361
      0.137385032      0.9966074229
     0.1374708481      0.9965506203
     0.1375566642      0.9964929387
     0.1376418926      0.9964347683
     0.1377271209       0.996375704
     0.1378123492      0.9963157337
     0.1378975775      0.9962548464
     0.1379828059       0.996193032
     0.1380680342      0.9961302816
     0.1381532625       0.996066587
     0.1382384908      0.9960019405
      0.138323106      0.9959368097
     0.1384077212      0.9958707249
     0.1384923364      0.9958038227
     0.1385769515      0.9957359986
     0.1386615667      0.9956672106
     0.1387461819      0.9955974323
     0.1388307971      0.9955266464
     0.1389154122      0.9954546745
     0.1389993864      0.9953823218
     0.1390833605      0.9953089573
     0.1391673347      0.9952345373
     0.1392513088      0.9951590365
      0.139335283      0.9950824328
     0.1394192571      0.9950047055
     0.1395032313      0.9949258392
     0.1395872054      0.9948458163
     0.1396711796      0.9947646245
     0.1397551537      0.9946822492
     0.1398384452      0.9945991737
     0.1399217366      0.9945148458
      0.140005028      0.9944292994
     0.1400883195       0.994342543
     0.1401716109      0.9942545795
     0.1402549023      0.9941654019
     0.1403381938      0.9940750018
     0.1404214852      0.9939833696
     0.1405040586       0.993891269
      0.140586632      0.9937978784
     0.1406692054      0.9937031703
     0.1407517788      0.9936071196
     0.1408343522      0.9935097022
     0.1409169256      0.9934108955
      0.140999499      0.9933106799
     0.1410820724      0.9932090568
     0.1411638883      0.9931069894
     0.1412457041      0.9930035414
       0.14132752      0.9928986953
     0.1414093358      0.9927924318
     0.1414911517      0.9926847312
     0.1415729675       0.992575574
     0.1416547834      0.9924649412
     0.1417358049      0.9923539095
     0.1418168264      0.9922413938