# Probe 0 (3.4 0.005 1.5)
# Probe 1 (4.4 0.005 1.5)
# Probe 2 (5.4 0.005 1.5)
# Probe 3 (5.9 0.005 1.5)
# Probe 4 (6.2 0.005 1.5)
# Probe 5 (6.7 0.005 1.5)
# Probe 6 (8.2 0.005 1.5)
#           Probe                 0                 1                 2                 3                 4                 5                 6
#            Time
    1.1999904e-06       2.965030993          3.267132       3.333021733       3.342668475       3.345796978       3.348594173       3.350801532
  2.639965056e-06        2.96502907       3.267129881       3.333019571       3.342666307       3.345794808       3.348592001       3.350799358
  4.367944597e-06       2.965026762       3.267127338       3.333016977       3.342663705       3.345792204       3.348589395        3.35079675
  6.441505713e-06       2.965023993       3.267124287       3.333013864       3.342660583       3.345789079       3.348586267       3.350793621
   8.92973777e-06        2.96502067       3.267120625       3.333010128       3.342656837       3.345785329       3.348582515       3.350789865
  1.191552707e-05       2.965016682       3.267116232       3.333005646       3.342652342        3.34578083       3.348578011       3.350785359
  1.549838863e-05       2.965011898       3.267110959       3.333000268       3.342646948       3.345775431       3.348572608       3.350779952
  1.979776087e-05       2.965006157       3.267104633       3.332993814       3.342640475       3.345768952       3.348566124       3.350773464
  2.495674128e-05       2.964999268       3.267097043        3.33298607       3.342632709       3.345761179       3.348558344       3.350765679
  3.114713435e-05       2.964991002       3.267087935       3.332976779       3.342623391       3.345751852       3.348549009       3.350756338
  3.857523794e-05       2.964981085       3.267077007        3.33296563        3.34261221       3.345740661       3.348537809        3.35074513
  4.748896225e-05       2.964969185       3.267063894       3.332952253       3.342598795       3.345727232       3.348524369       3.350731682
  5.818543142e-05       2.964954906       3.267048161       3.332936202       3.342582697        3.34571112       3.348508243       3.350715545
  7.102064463e-05       2.964937774       3.267029283       3.332916944       3.342563383       3.345691788       3.348488895       3.350696184
  8.642131685e-05       2.964917221       3.267006636        3.33289384       3.342540212       3.345668595       3.348465683       3.350672957
  0.0001049009832       2.964892562       3.266979465       3.332866121       3.342512413        3.34564077       3.348437834        3.35064509
  0.0001270765827       2.964862977       3.266946866       3.332832864        3.34247906       3.345607386       3.348404423       3.350611656
  0.0001536896689       2.964827481       3.266907752       3.332792962       3.342439042       3.345567331       3.348364334       3.350571541
  0.0001856219625       2.964784902       3.266860834       3.332745098        3.34239104       3.345519283       3.348316246       3.350523422
  0.0002239407148       2.964733825       3.266804551        3.33268768       3.342333456       3.345461645        3.34825856       3.350465697
  0.0002699019884       2.964672587        3.26673707       3.332618838       3.342264414       3.345392539       3.348189396       3.350396488
  0.0003250351347       2.964599169       3.266656161       3.332536297       3.342181634       3.345309682        3.34810647       3.350313507
  0.0003911802278       2.964511149       3.266559147       3.332437327       3.342082378       3.345210332       3.348007037       3.350214009
  0.0004705543394       2.964405627       3.266442811       3.332318644       3.341963351       3.345091195         3.3478878       3.350094693
  0.0005658032734       2.964279177       3.266303322       3.332176342       3.341820638       3.344948347       3.347744833       3.349951632
  0.0006799700095       2.964127932       3.266136294       3.332005945       3.341649748       3.344777297        3.34757364       3.349780326
  0.0008169700928        2.96394704       3.265936097       3.331801711       3.341444922        3.34457228       3.347368451       3.349575002
  0.0009814618316       2.963731002       3.265696068        3.33155684       3.341199343       3.344326471       3.347122437       3.349328826
   0.001179117227        2.96347354       3.265408137       3.331263101       3.340904755       3.344031607       3.346827327        3.34903352
   0.001416111804       2.963168396       3.265063606       3.330911617       3.340552255       3.343678777       3.346474202       3.348680163
   0.001666544217       2.962849971       3.264700379       3.330541053        3.34018062       3.343306795       3.346101908       3.348307624
   0.001916976631       2.962534783       3.264338019       3.330171353       3.339809854       3.342935682       3.345730485       3.347935956
   0.002167409044       2.962221175       3.263976542       3.329802517       3.339439955       3.342565437       3.345359931       3.347565157
   0.002417841458       2.961906904       3.263615982       3.329434541        3.33907092       3.342196058       3.344990243       3.347195226
   0.002668273871       2.961589748        3.26325639       3.329067421       3.338702746        3.34182754       3.344621417       3.346826157
   0.002918706284        2.96126808       3.262897839       3.328701155       3.338335429       3.341459881       3.344253451       3.346457949
   0.003169138698       2.960941239       3.262540429       3.328335743       3.337968968        3.34109308       3.343886344         3.3460906
   0.003419571111        2.96060963       3.262184266       3.327971176       3.337603354       3.340727127       3.343520087       3.345724101
   0.003670003524       2.960274682       3.261829474       3.327607456       3.337238586       3.340362023       3.343154679       3.345358452
   0.003920435938       2.959938287        3.26147616       3.327244586       3.336874661       3.339997762       3.342790117        3.34499365
   0.004170868351       2.959602287       3.261124397       3.326882568       3.336511575       3.339634343       3.342426398       3.344629692
   0.004421300765       2.959268178       3.260774195       3.326521409       3.336149327       3.339271761       3.342063518       3.344266574
   0.004671733178       2.958937142        3.26042548       3.326161118       3.335787919       3.338910019        3.34170148       3.343904298
   0.004922165591       2.958609998       3.260078047       3.325801699       3.335427342       3.338549102       3.341340269       3.343542852
   0.005172598005       2.958286961       3.259731575       3.325443169       3.335067602       3.338189014       3.340979888       3.343182235
   0.005423030418       2.957967522        3.25938561       3.325085553         3.3347087       3.337829753       3.340620333       3.342822447
   0.005673462831       2.957650773       3.259039614        3.32472888        3.33435064       3.337471319         3.3402616       3.342463483
   0.005923895245       2.957335885        3.25869304       3.324373186       3.333993427       3.337113712       3.339903688       3.342105341
   0.006174327658       2.957022353       3.258345441       3.324018513       3.333637064       3.336756933       3.339546592       3.341748017
   0.006424760072       2.956710033       3.257996574       3.323664903        3.33328156       3.336400986       3.339190311       3.341391508
   0.006675192485       2.956399036       3.257646485       3.323312397       3.332926929       3.336045871       3.338834843       3.341035812
   0.006925624898       2.956089523       3.257295529       3.322961026       3.332573187       3.335691591       3.338480187       3.340680925
   0.007176057312        2.95578155       3.256944348       3.322610803       3.332220356       3.335338152       3.338126343       3.340326843
   0.007426489725       2.955475025       3.256593796       3.322261722       3.331868472       3.334985571       3.337773318       3.339973574
   0.007676922139         2.9551697       3.256244765       3.321913712       3.331517546       3.334633843       3.337421098       3.339621096
   0.007927354552       2.954865287       3.255898108       3.321566683       3.331167618       3.334282996        3.33706969       3.339269415
   0.008177786965       2.954561511       3.255554469       3.321220471       3.330818696       3.333933032       3.336719079       3.338918509
   0.008428219379       2.954258061       3.255214276       3.320874943       3.330470855       3.333584029       3.336369322       3.338568432
   0.008678651792       2.953954348       3.254877521       3.320529835       3.330124047        3.33323596        3.33602037       3.338219124
   0.008929084205       2.953649776       3.254543988       3.320184968       3.329778278       3.332888868        3.33567225       3.337870601
   0.009179516619       2.953343855       3.254213206       3.319840193       3.329433513       3.332542778       3.335324974        3.33752286
   0.009429949032       2.953036273       3.253884515       3.319495448       3.329089689       3.332197704       3.334978557       3.337175899
   0.009680381446       2.952727028       3.253557103       3.319150784       3.328746712       3.331853651       3.334633015       3.336829713
   0.009930813859       2.952416457       3.253230052       3.318806368        3.32840447       3.331510603       3.334288368       3.336484302
    0.01018124627        2.95210516       3.252902401       3.318462473       3.328062837       3.331168527       3.333944637       3.336139662
    0.01043167869       2.951793957       3.252573246       3.318119455       3.327721689       3.330827365        3.33360184        3.33579579
     0.0106821111       2.951483789       3.252241861        3.31777769        3.32738093       3.330487033       3.333259996       3.335452685
    0.01093254351       2.951175606       3.251907817       3.317437502       3.327040498       3.330147432       3.332919112       3.335110346
    0.01118297593       2.950870245       3.251571065        3.31709908       3.326700389       3.329808446       3.332579192       3.334768769
    0.01143340834        2.95056832        3.25123203        3.31676241       3.326360652       3.329469966       3.332240222       3.334427955
    0.01168384075       2.950270136       3.250891592       3.316427255       3.326021391       3.329131894       3.331902178       3.334087903
    0.01193427317       2.949975625       3.250550938       3.316093153       3.325682738       3.328794167       3.331565013        3.33374861
    0.01218470558       2.949684327       3.250211462       3.315759488       3.325344838       3.328456772       3.331228679       3.333410091
    0.01243513799        2.94939539       3.249874514       3.315425546       3.325007757       3.328119695       3.330893069        3.33307232
    0.01268557041       2.949107783       3.249541256       3.315090704       3.324671538       3.327782995       3.330558104       3.332735312
    0.01293600282        2.94882047       3.249212426       3.314754513       3.324336115       3.327446737       3.330223687       3.332399071
    0.01318643523       2.948532618       3.248888262       3.314416835       3.324001329       3.327110988        3.32988972       3.332063603
    0.01343686765        2.94824368       3.248568501       3.314077921       3.323666954       3.326775796       3.329556118       3.331728915
    0.01368730006       2.947953449       3.248252492       3.313738418       3.323332742       3.326441171       3.329222812       3.331395013
    0.01393773247        2.94766205       3.247939356       3.313399316       3.322998484       3.326107084       3.328889756       3.331061909
    0.01418816489       2.947369898       3.247628112       3.313061817       3.322664087       3.325773476       3.328556929       3.330729612
     0.0144385973       2.947077603       3.247317784       3.312727151       3.322329611       3.325440286       3.328224337       3.330398133
    0.01468902971       2.946785852       3.247007412       3.312396356       3.321995332       3.325107478       3.327892013       3.330067482
    0.01493946213       2.946495214       3.246696163       3.312070063       3.321661716       3.324775063       3.327560009       3.329737671
    0.01518989454       2.946205966        3.24638342       3.311748358       3.321329385       3.324443153         3.3272284       3.329408704
    0.01544032695       2.945917956       3.246068864         3.3114307        3.32099902        3.32411197       3.326897281       3.329080584
    0.01569075937       2.945630532       3.245752533       3.311116017       3.320671244       3.323781843       3.326566769       3.328753308
    0.01594119178       2.945342647       3.245434767        3.31080291        3.32034651       3.323453172       3.326236995       3.328426862
    0.01619162419       2.945053146       3.245115971       3.310489868       3.320024982       3.323126375         3.3259081       3.328101221
    0.01644205661       2.944761117       3.244796565       3.310175513       3.319706467       3.322801806       3.325580247       3.327776351
    0.01669248902       2.944466175       3.244478438       3.309859264       3.319390422       3.322479688       3.325253609       3.327452199
    0.01694292143       2.944168585       3.244163389       3.309541041        3.31907604       3.322160045       3.324928356       3.327128701
    0.01719335385       2.943869241       3.243850816       3.309221304       3.318762323       3.321842667       3.324604642       3.326805784
    0.01744378626       2.943569535       3.243537681       3.308901243        3.31844824       3.321527121       3.324282585       3.326483362
    0.01769421867       2.943271134       3.243223336       3.308581888       3.318132906       3.321212759       3.323962245        3.32616135
    0.01794465109        2.94297569       3.242906211       3.308263477       3.317815763        3.32089882       3.323643602       3.325839671
     0.0181950835       2.942684556       3.242585221        3.30794536       3.317496684       3.320584498       3.323326539       3.325518262
    0.01844551591       2.942398575        3.24226061       3.307626155       3.317176008       3.320269076       3.323010841       3.325197083
    0.01869594833       2.942117988       3.241933785       3.307304207       3.316854441       3.319952089       3.322696198       3.324876128
    0.01894638074       2.941842424       3.241606786       3.306978259       3.316532837       3.319633416        3.32238223       3.324555429
    0.01919681315       2.941570978       3.241281875       3.306648088       3.316211942       3.319313345       3.322068536       3.324235079
    0.01944724557       2.941302285       3.240961091       3.306314754       3.315892066       3.318992437       3.321754652       3.323915145
    0.01969767798       2.941034874       3.240646015       3.305980499       3.315573103       3.318671509       3.321440241       3.323595794
    0.01994811039       2.940767422       3.240337472       3.305648023       3.315254489        3.31835135       3.321125062       3.323277196
    0.02019854281       2.940498974        3.24003556       3.305319989       3.314935451       3.318032541        3.32080905       3.322959531
    0.02044897522       2.940229021       3.239739561        3.30499867       3.314615335       3.317715298       3.320492338       3.322642973
    0.02069940763       2.939957446       3.239448191       3.304685519       3.314293968       3.317399421       3.320175254       3.322327665
    0.02094984005       2.939684378       3.239159899       3.304380739       3.313971911       3.317084385       3.319858264       3.322013703
    0.02120027246       2.939410011        3.23887303       3.304083162        3.31365046       3.316769553       3.319541894       3.321701121
    0.02145070487       2.939134461       3.238586014       3.303790548       3.313331376       3.316454465       3.319226621       3.321389894
    0.02170113729       2.938857724       3.238297455       3.303500001        3.31301647       3.316139064       3.318912778       3.321079937
     0.0219515697       2.938579727       3.238006242        3.30320854         3.3127071       3.315823806       3.318600487       3.320771113
    0.02220200211       2.938300422       3.237711658       3.302913633       3.312403695       3.315509635       3.318289641       3.320463245
    0.02245243453       2.938019893       3.237413526       3.302613688       3.312105539       3.315197744       3.317979955       3.320156123
    0.02270286694        2.93773843       3.237112124       3.302308268       3.311810921       3.314889183       3.317671063       3.319849518
    0.02295329935       2.937456566       3.236807855       3.301998032       3.311517513       3.314584478       3.317362648       3.319543208
    0.02320373177       2.937175073       3.236501472       3.301684496       3.311222801       3.314283449       3.317054544       3.319236994
    0.02345416418       2.936894907       3.236193921       3.301369645        3.31092464       3.313985191       3.316746791       3.318930726
    0.02370459659       2.936617109       3.235886162       3.301055464       3.310621741       3.313688197       3.316439626       3.318624327
    0.02395502901       2.936342677       3.235579041       3.300743504       3.310313944       3.313390691       3.316133381       3.318317803
    0.02420546142       2.936072423       3.235273257       3.300434625       3.310002192       3.313091078       3.315828359       3.318011243
    0.02445589384       2.935806849       3.234969576       3.300128985       3.309688241        3.31278835       3.315524714       3.317704816
    0.02470632625       2.935546044       3.234668932       3.299826166       3.309374222       3.312482324       3.315222382       3.317398752
    0.02495675866       2.935289607       3.234372031       3.299525411       3.309062145       3.312173655       3.314921072       3.317093311
    0.02520719108       2.935036628       3.234079285       3.299225921         3.3087535       3.311863639       3.314620344       3.316788763
    0.02545762349       2.934785771       3.233790758       3.298927095       3.308448999         3.3115539        3.31431974       3.316485343
     0.0257080559       2.934535449       3.233506102       3.298628654        3.30814853       3.311245984       3.314018913       3.316183225
    0.02595848832       2.934284083       3.233224589       3.298330634       3.307851322       3.310941033        3.31371771       3.315882487
    0.02620892073       2.934030269       3.232945239       3.298033279       3.307556241        3.31063955       3.313416194       3.315583095
    0.02645935314       2.933772874       3.232666966       3.297736877       3.307262126        3.31034137       3.313114631       3.315284898
    0.02670978556       2.933511265       3.232388665       3.297441602       3.306968095        3.31004579       3.312813403       3.314987642
    0.02696021797       2.933245397        3.23210934       3.297147432         3.3066737       3.309751838       3.312512922       3.314690994
    0.02721065038       2.932975841       3.231828128       3.296854151       3.306378918       3.309458556       3.312213527       3.314394594
     0.0274610828       2.932703662       3.231544384       3.296561437       3.306084022       3.309165232       3.311915423       3.314098102
    0.02771151521       2.932430211       3.231257748       3.296268997       3.305789395       3.308871527       3.311618672       3.313801261
    0.02796194762       2.932156875       3.230968152       3.295976647       3.305495355       3.308577493       3.311323217       3.313503944
    0.02821238004       2.931884857       3.230675763       3.295684333       3.305202033       3.308283472       3.311028937       3.313206188
    0.02846281245       2.931615006          3.230381        3.29539208       3.304909351       3.307989921       3.310735694         3.3129082
    0.02871324486       2.931347759       3.230084522       3.295099912       3.304617086       3.307697232       3.310443383        3.31261033
    0.02896367728       2.931083152       3.229787198       3.294807757       3.304324977       3.307405586       3.310151941        3.31231302
    0.02921410969       2.930820899        3.22949005       3.294515406       3.304032832         3.3071149       3.309861332       3.312016743
     0.0294645421       2.930560504       3.229194162       3.294222552       3.303740581       3.306824858       3.309571513       3.311721919
    0.02971497452       2.930301378       3.228900571       3.293928889       3.303448273       3.306535015       3.309282401        3.31142885
    0.02996540693       2.930042937       3.228610158       3.293634245       3.303156017       3.306244932       3.308993849       3.311137666
    0.03021583934       2.929784691       3.228323556       3.293338684        3.30286391       3.305954298       3.308705639       3.310848307
    0.03046627176       2.929526319       3.228041082       3.293042591       3.302572016       3.305663037       3.308417539       3.310560567
    0.03071670417       2.929267613       3.227762632       3.292746508       3.302280221       3.305371185       3.308129211       3.310274015
    0.03096713658        2.92900864       3.227488036       3.292451237       3.301988474       3.305079033       3.307840454       3.309988241
      0.031217569        2.92874964       3.227216831       3.292157568       3.301696728       3.304786911       3.307551128       3.309702797
    0.03146800141       2.928491018       3.226948308       3.291866188       3.301405052       3.304495133       3.307261216       3.309417294
    0.03171843382       2.928233274       3.226681606       3.291577583        3.30111367       3.304203946       3.306970841       3.309131462
    0.03196886624       2.927976905       3.226415831       3.291292006        3.30082295       3.303913515       3.306680254       3.308845182
    0.03221929865       2.927722306       3.226150143       3.291009497       3.300533344       3.303623943         3.3063898       3.308558502
    0.03246973106       2.927469669       3.225883837       3.290729932       3.300245307       3.303335313       3.306099865       3.308271621
    0.03272016348       2.927218938       3.225616404       3.290453086       3.299959213       3.303047738       3.305810822       3.307984851
    0.03297059589       2.926969822       3.225347564       3.290178656       3.299675308       3.302761378       3.305522971       3.307698561
     0.0332210283        2.92672188        3.22507727       3.289906252       3.299393685       3.302476435       3.305236504       3.307413112
    0.03347146072       2.926474651       3.224805646       3.289635355        3.29911431       3.302193121       3.304951488       3.307128789
    0.03372189313       2.926227777        3.22453289       3.289365296       3.298837038       3.301911609       3.304667873        3.30684575
    0.03397232554        2.92598108       3.224259194       3.289095259       3.298561648       3.301631994        3.30438553       3.306563996
    0.03422275796       2.925734564       3.223984703       3.288824323        3.29828784       3.301354264       3.304104297       3.306283375
    0.03447319037       2.925488329       3.223709498        3.28855155       3.298015227       3.301078283       3.303824036       3.306003612
    0.03472362278       2.925242464       3.223433682        3.28827612        3.29774332       3.300803802       3.303544671       3.305724365
     0.0349740552       2.924996951       3.223157442       3.287997482       3.297471522       3.300530474       3.303266207       3.305445288
    0.03522448761       2.924751626       3.222881072       3.287715503        3.29719916       3.300257872       3.302988713       3.305166101
    0.03547492002       2.924506205       3.222604958       3.287430565       3.296925543        3.29998552       3.302712287       3.304886639
    0.03572535244       2.924260371       3.222329547        3.28714357       3.296650077       3.299712919       3.302437001       3.304606882
    0.03597578485        2.92401387       3.222055277       3.286855831       3.296372375       3.299439579       3.302162843       3.304326948
    0.03622621726       2.923766575       3.221782471       3.286568842       3.296092372       3.299165082       3.301889679       3.304047063
    0.03647664968       2.923518682       3.221511281       3.286283986       3.295810388       3.298889136       3.301617242       3.303767517
    0.03672708209       2.923270432       3.221241674       3.286002243        3.29552712        3.29861164       3.301345148       3.303488605
     0.0369775145       2.923022297       3.220973509       3.285724004       3.295243557       3.298332732       3.301072958       3.303210587
    0.03722794692       2.922775129        3.22070665        3.28544903        3.29496082       3.298052805       3.300800248       3.302933641
    0.03747837933       2.922529564       3.220441078        3.28517659        3.29467996       3.297772474       3.300526693       3.302657859
    0.03772881174       2.922286004       3.220176935       3.284905734       3.294401758       3.297492495       3.300252136       3.302383246
    0.03797924416        2.92204482       3.219914511        3.28463559       3.294126578       3.297213651       3.299976635       3.302109736
    0.03822967657       2.921805729       3.219654133       3.284365578       3.293854314       3.296936612       3.299700459        3.30183722
    0.03848010898       2.921568081       3.219396001       3.284095489       3.293584438        3.29666181       3.299424057       3.301565566
     0.0387305414       2.921330891        3.21914007       3.283825439       3.293316153       3.296389359       3.299147982       3.301294647
    0.03898097381       2.921093284       3.218886022       3.283555713       3.293048583       3.296119037       3.298872799       3.301024348
    0.03923140622       2.920854678       3.218633303         3.2832866       3.292780967        3.29585035       3.298598985       3.300754578
    0.03948183864       2.920614689       3.218381215       3.283018279       3.292512789       3.295582645       3.298326853        3.30048527
    0.03973227105       2.920373527       3.218129025       3.282750784       3.292243846       3.295315257       3.298056504       3.300216372
    0.03998270346       2.920131086       3.217876054       3.282484042       3.291974217       3.295047646       3.297787811       3.299947852
    0.04023313588       2.919887614       3.217621727       3.282217934       3.291704195       3.294779496       3.297520459       3.299679693
    0.04048356829       2.919643391       3.217365598       3.281952355       3.291434183       3.294510751       3.297254009       3.299411887
     0.0407340007       2.919398926       3.217107403       3.281687233       3.291164603       3.294241596       3.296987978       3.299144438
    0.04098443312       2.919154888       3.216847071       3.281422519       3.290895826       3.293972382       3.296721931       3.298877357
    0.04123486553       2.918912084       3.216584742       3.281158176       3.290628135       3.293703529       3.296455551       3.298610662
    0.04148529795       2.918671221       3.216320903       3.280894164       3.290361701       3.293435427       3.296188685       3.298344376
    0.04173573036        2.91843246       3.216056332        3.28063045       3.290096577       3.293168365       3.295921361       3.298078519
    0.04198616277       2.918195541       3.215791994       3.280367021        3.28983271       3.292902492       3.295653766       3.297813111
    0.04223659519       2.917959909       3.215528882       3.280103886       3.289569951       3.292637809       3.295386205       3.297548164
     0.0424870276       2.917724591       3.215267847       3.279841061       3.289308087       3.292374203       3.295119038       3.297283687
    0.04273746001       2.917488637       3.215009475       3.279578542       3.289046887       3.292111488        3.29485262       3.297019684
    0.04298789243       2.917251442       3.214754132       3.279316278       3.288786137       3.291849461       3.294587239       3.296756158
    0.04323832484       2.917012642       3.214501999        3.27905418       3.288525673       3.291587952       3.294323077        3.29649311
    0.04348875725       2.916772113       3.214252941       3.278792163       3.288265388       3.291326861       3.294060188        3.29623054
    0.04373918967       2.916530044       3.214006557       3.278530209       3.288005221       3.291066173       3.293798512       3.295968436
    0.04398962208       2.916286959       3.213762222       3.278268433       3.287745138       3.290805945         3.2935379       3.295706775
    0.04424005449       2.916043523       3.213519152       3.278007111       3.287485113       3.290546272       3.293278161       3.295445518
    0.04449048691       2.915800249       3.213276482       3.277746659       3.287225126       3.290287239       3.293019118       3.295184604
    0.04474091932       2.915558004        3.21303334       3.277487551       3.286965191       3.290028871       3.292760639       3.294923966
    0.04499135173       2.915317329       3.212788955       3.277230218       3.286705389       3.289771108       3.292502669       3.294663534
    0.04524178415       2.915078563       3.212542776       3.276974971       3.286445904        3.28951381       3.292245219       3.294403257