# Probe 0 (3.4 0.005 1.5)
# Probe 1 (4.4 0.005 1.5)
# Probe 2 (5.4 0.005 1.5)
# Probe 3 (5.9 0.005 1.5)
# Probe 4 (6.2 0.005 1.5)
# Probe 5 (6.7 0.005 1.5)
# Probe 6 (8.2 0.005 1.5)
#           Probe                 0                 1                 2                 3                 4                 5                 6
#            Time
    1.1999904e-06       3.010758894       3.285903552       3.338740995        3.34567935       3.347814168       3.349628452       3.350929951
  2.639965056e-06       3.010756941        3.28590142       3.338738829        3.34567718       3.347811997       3.349626279       3.350927777
  4.367944597e-06       3.010754598       3.285898863        3.33873623       3.345674576       3.347809391       3.349623672       3.350925169
  6.441505713e-06       3.010751786       3.285895794       3.338733112       3.345671451       3.347806264       3.349620543        3.35092204
   8.92973777e-06       3.010748411       3.285892111        3.33872937       3.345667702       3.347802512       3.349616789       3.350918284
  1.191552707e-05       3.010744363       3.285887692        3.33872488       3.345663203        3.34779801       3.349612285       3.350913778
  1.549838863e-05       3.010739504        3.28588239       3.338719493       3.345657804       3.347792608        3.34960688       3.350908371
  1.979776087e-05       3.010733674       3.285876028       3.338713028       3.345651326       3.347786125       3.349600394       3.350901882
  2.495674128e-05       3.010726679       3.285868393       3.338705271       3.345643552       3.347778347       3.349592612       3.350894097
  3.114713435e-05       3.010718286       3.285859233       3.338695964       3.345634226       3.347769015       3.349583274       3.350884756
  3.857523794e-05       3.010708216       3.285848243       3.338684796       3.345623035       3.347757817        3.34957207       3.350873547
  4.748896225e-05       3.010696132       3.285835055       3.338671396       3.345609607       3.347744381       3.349558626       3.350860098
  5.818543142e-05       3.010681633       3.285819231       3.338655318       3.345593495       3.347728258       3.349542495       3.350843961
  7.102064463e-05       3.010664237       3.285800245       3.338636026       3.345574164       3.347708915       3.349523141         3.3508246
  8.642131685e-05       3.010643367       3.285777467       3.338612882       3.345550972       3.347685708       3.349499922       3.350801371
  0.0001049009832       3.010618328        3.28575014       3.338585116       3.345523148       3.347657866       3.349472065       3.350773503
  0.0001270765827       3.010588287       3.285717353       3.338551802       3.345489765       3.347624462       3.349438642       3.350740068
  0.0001536896689       3.010552243       3.285678015       3.338511832       3.345449711       3.347584382       3.349398541       3.350699951
  0.0001856219625       3.010509007       3.285630828       3.338463885       3.345401665       3.347536306       3.349350439        3.35065183
  0.0002239407148       3.010457143       3.285574222       3.338406369       3.345344029       3.347478633       3.349292735       3.350594104
  0.0002699019884        3.01039496       3.285506353       3.338337409       3.345274926       3.347409485        3.34922355       3.350524891
  0.0003250351347        3.01032041       3.285424979       3.338254726       3.345192071       3.347326578       3.349140597       3.350441907
  0.0003911802278       3.010231032       3.285327407       3.338155586       3.345092725       3.347227169       3.349041134       3.350342405
  0.0004705543394       3.010123884       3.285210403         3.3380367       3.344973592       3.347107959        3.34892186       3.350223085
  0.0005658032734       3.009995484       3.285070112       3.337894153       3.344830749       3.346965026       3.348778849       3.350080018
  0.0006799700095       3.009841907       3.284902124       3.337723464       3.344659705       3.346793873       3.348607603       3.349908706
  0.0008169700928       3.009658227       3.284700777       3.337518879       3.344454695       3.346588732       3.348402351       3.349703374
  0.0009814618316       3.009438862       3.284459369       3.337273589       3.344208895       3.346342775       3.348156261       3.349457188
   0.001179117227       3.009177437       3.284169784       3.336979346       3.343914042       3.346047733       3.347861059       3.349161872
   0.001416111804       3.008867601       3.283823273       3.336627259       3.343561224        3.34569469       3.347507825       3.348808501
   0.001666544217       3.008544284        3.28345796       3.336256058       3.343189254       3.345322483       3.347135417       3.348435947
   0.001916976631       3.008224256       3.283093517       3.335885724       3.342818154       3.344951147       3.346763879       3.348064265
   0.002167409044       3.007905828       3.282729964       3.335516255       3.342447922       3.344580679        3.34639321       3.347693453
   0.002417841458       3.007586723       3.282367332       3.335147647       3.342078555       3.344211077       3.346023408       3.347323507
   0.002668273871        3.00726468       3.282005674       3.334779898        3.34171005       3.343842337       3.345654469       3.346954424
   0.002918706284       3.006938049       3.281645064       3.334413003       3.341342402       3.343474456       3.345286389       3.346586201
   0.003169138698        3.00660616         3.2812856       3.334046964       3.340975611       3.343107434       3.344919169       3.346218838
   0.003419571111       3.006269428       3.280927392       3.333681771       3.340609667       3.342741261       3.344552798       3.345852326
   0.003670003524       3.005929307       3.280570564       3.333317428       3.340244571       3.342375936       3.344187277       3.345486663
   0.003920435938       3.005587721       3.280215223       3.332953935       3.339880318       3.342011456       3.343822603       3.345121847
   0.004170868351       3.005246541       3.279861442       3.332591296       3.339516905       3.341647818       3.343458771       3.344757875
   0.004421300765       3.004907288       3.279509231       3.332229516        3.33915433       3.341285017        3.34309578       3.344394743
   0.004671733178       3.004571159       3.279158517       3.331868608       3.338792597       3.340923057       3.342733629       3.344032453
   0.004922165591       3.004238985       3.278809093       3.331508571       3.338431695       3.340561922       3.342372307       3.343670992
   0.005172598005       3.003910983       3.278460636       3.331149427       3.338071631       3.340201617       3.342011814       3.343310363
   0.005423030418       3.003586634       3.278112689       3.330791197       3.337712406        3.33984214       3.341652148       3.342950561
   0.005673462831       3.003265017        3.27776471       3.330433912       3.337354024        3.33948349       3.341293305       3.342591583
   0.005923895245       3.002945286        3.27741615       3.330077608       3.336996488       3.339125667       3.340935282       3.342233427
   0.006174327658       3.002626927       3.277066558       3.329722327       3.336639805       3.338768673       3.340578076       3.341876089
   0.006424760072       3.002309793       3.276715691       3.329368111       3.336283981       3.338412511       3.340221685       3.341519567
   0.006675192485       3.001993996       3.276363594       3.329015001        3.33592903       3.338057182       3.339866107       3.341163857
   0.006925624898       3.001679701       3.276010625       3.328663029       3.335574969       3.337702689       3.339511342       3.340808956
   0.007176057312       3.001366966        3.27565743       3.328312207       3.335221821       3.337349036       3.339157388       3.340454861
   0.007426489725       3.001055704       3.275304867       3.327962528        3.33486962       3.336996243       3.338804255       3.340101578
   0.007676922139       3.000745664       3.274953835       3.327613924       3.334518379       3.336644304       3.338451925       3.339749086
   0.007927354552       3.000436559       3.274605192       3.327266303       3.334168136       3.336293245       3.338100409       3.339397392
   0.008177786965       3.000128115       3.274259589       3.326919502       3.333818902       3.335943072       3.337749691       3.339046475
   0.008428219379       2.999820019       3.273917449       3.326573383       3.333470747       3.335593857       3.337399825       3.338696382
   0.008678651792       2.999511679       3.273578771       3.326227688       3.333123628       3.335245578       3.337050765       3.338347061
   0.008929084205       2.999202482       3.273243334       3.325882234        3.33277755       3.334898278       3.336702538       3.337998524
   0.009179516619        2.99889192       3.272910665       3.325536872       3.332432477        3.33455198       3.336355155        3.33765077
   0.009429949032       2.998579661       3.272580097       3.325191541       3.332088345         3.3342067        3.33600863       3.337303795
   0.009680381446       2.998265691       3.272250815       3.324846291       3.331745063        3.33386244       3.335662982       3.336957597
   0.009930813859       2.997950346       3.271921894       3.324501288       3.331402516       3.333519188       3.335318229       3.336612172
    0.01018124627       2.997634239       3.271592368       3.324156809       3.331060579       3.333176907       3.334974392       3.336267519
    0.01043167869       2.997318212        3.27126133       3.323813208       3.330719129       3.332835542       3.334631491       3.335923634
     0.0106821111       2.997003233       3.270928053       3.323470861       3.330378067       3.332495008       3.334289541       3.335580516
    0.01093254351       2.996690279       3.270592104       3.323130096       3.330037334       3.332155205       3.333948554       3.335238163
    0.01118297593       2.996380204       3.270253435       3.322791099       3.329696923        3.33181602       3.333608529       3.334896574
    0.01143340834       2.996073632       3.269912473        3.32245386       3.329356886       3.331477339       3.333269457       3.334555747
    0.01168384075       2.995770863       3.269570104       3.322118138       3.329017325       3.331139069        3.33293131       3.334215681
    0.01193427317       2.995471812       3.269227516       3.321783472       3.328678373       3.330801143       3.332594043       3.333876376
    0.01218470558       2.995176005       3.268886112       3.321449246       3.328340173        3.33046355       3.332257608       3.333537844
    0.01243513799       2.994882586       3.268547249       3.321114743       3.328002794       3.330126275       3.331921898       3.333200059
    0.01268557041       2.994590528       3.268212096       3.320779336       3.327666277       3.329789377       3.331586834       3.332863039
    0.01293600282       2.994298794       3.267881395       3.320442577       3.327330558       3.329452921       3.331252317       3.332526785
    0.01318643523       2.994006541       3.267555388       3.320104326       3.326995476       3.329116975       3.330918251       3.332191305
    0.01343686765        2.99371321        3.26723381       3.319764835       3.326660807       3.328781584       3.330584551       3.331856603
    0.01368730006       2.993418575       3.266916009       3.319424754       3.326326301       3.328446762       3.330251146       3.331522689
    0.01393773247       2.993122747       3.266601103       3.319085079       3.325991751       3.328112478       3.329917991       3.331189572
    0.01418816489       2.992826137       3.266288108       3.318747017        3.32565706       3.327778674       3.329585066       3.330857263
     0.0144385973       2.992529366       3.265976044       3.318411804       3.325322293        3.32744529       3.329252375       3.330525771
    0.01468902971       2.992233136       3.265663938       3.318080481       3.324987723       3.327112288       3.328919952       3.330195109
    0.01493946213       2.991938039       3.265350945       3.317753679       3.324653817       3.326779681       3.328587849       3.329865285
    0.01518989454       2.991644363       3.265036431       3.317431479       3.324321201        3.32644758       3.328256141       3.329536306
    0.01544032695       2.991351962       3.264720068        3.31711333       3.323990556       3.326116208       3.327924925       3.329208175
    0.01569075937       2.991060177       3.264401894       3.316798149       3.323662508       3.325785894       3.327594315       3.328880887
    0.01594119178       2.990767944       3.264082263       3.316484527        3.32333751       3.325457039       3.327264445        3.32855443
    0.01619162419       2.990474081       3.263761593       3.316170941       3.323015725       3.325130062       3.326935457       3.328228779
    0.01644205661       2.990177655       3.263440327       3.315856009       3.322696961       3.324805318       3.326607511       3.327903897
    0.01669248902       2.989878261       3.263120579         3.3155392       3.322380669        3.32448303       3.326280782       3.327579735
    0.01694292143       2.989576159       3.262804606       3.315220455       3.322066034       3.324163223        3.32595544       3.327256228
    0.01719335385       2.989272247       3.262489817       3.314900167       3.321752049       3.323845686       3.325631638       3.326933301
    0.01744378626       2.988967934       3.262174402       3.314579558       3.321437679       3.323529979       3.325309497       3.326610869
    0.01769421867       2.988664907       3.261857876       3.314259585       3.321122036        3.32321545       3.324989074       3.326288849
    0.01794465109       2.988364844       3.261538924       3.313940465       3.320804567       3.322901329       3.324670351        3.32596716
     0.0181950835       2.988069126       3.261216468       3.313621575       3.320485151       3.322586807       3.324353209       3.325645742
    0.01844551591       2.987778628       3.260890453       3.313301597        3.32016414       3.322271169       3.324037432       3.325324553
    0.01869594833       2.987493621       3.260561976       3.312978942       3.319842247       3.321953949       3.323722709       3.325003589
    0.01894638074       2.987213757       3.260233004       3.312652387       3.319520326       3.321635038       3.323408656       3.324682881
    0.01919681315       2.986938137       3.259905946       3.312321703       3.319199123       3.321314733        3.32309487       3.324362522
    0.01944724557       2.986665383       3.259583054       3.311987899       3.318878941       3.320993603       3.322780885       3.324042579
    0.01969767798       2.986393984       3.259266068       3.311653158       3.318559658       3.320672472       3.322466363       3.323723219
    0.01994811039       2.986122552       3.258955908       3.311320162       3.318240699       3.320352128       3.322151065       3.323404612
    0.02019854281       2.985850068       3.258652646       3.310991632       3.317921277       3.320033138       3.321834928       3.323086939
    0.02044897522       2.985575973       3.258355523       3.310669947       3.317600738       3.319715701        3.32151809       3.322770374
    0.02069940763       2.985300128       3.258063172       3.310356643       3.317278927       3.319399596       3.321200883       3.322455059
    0.02094984005       2.985022682       3.257773913       3.310051922       3.316956454       3.319084281        3.32088378       3.322141091
    0.02120027246       2.984743869       3.257485889       3.309754496       3.316634681       3.318769124       3.320567304       3.321828505
    0.02145070487        2.98446387       3.257197328        3.30946194       3.316315435        3.31845369        3.32025193       3.321517274
    0.02170113729       2.984182755       3.256906748       3.309171231       3.316000569       3.318137967       3.319937987       3.321207314
     0.0219515697       2.983900502       3.256613142       3.308879248       3.315691419       3.317822473       3.319625587       3.320898489
    0.02220200211        2.98361709       3.256316074       3.308583426       3.315388335       3.317508206       3.319314617       3.320590619
    0.02245243453       2.983332591       3.256015672       3.308282243        3.31509048       3.317196386       3.319004787       3.320283493
    0.02270286694       2.983047255       3.255712384       3.307975434       3.314796041        3.31688804       3.318695741       3.319976885
    0.02295329935       2.982761551       3.255406625       3.307663899        3.31450256       3.316583632       3.318387173       3.319670569
    0.02320373177       2.982476176       3.255099028       3.307349374       3.314207442       3.316282896       3.318078939       3.319364346
    0.02345416418       2.982192026       3.254790321       3.307033972        3.31390856       3.315984824       3.317771102       3.319058068
    0.02370459659        2.98191011        3.25448124       3.306719663       3.313604737       3.315687819       3.317463915       3.318751656
    0.02395502901       2.981631434       3.254172508       3.306407844       3.313295998       3.315390059       3.317157718       3.318445115
    0.02420546142       2.981356864       3.253864878       3.306099152       3.312983477       3.315089973       3.316852804       3.318138535
    0.02445589384       2.981086984       3.253559274       3.305793536       3.312669067       3.314786632       3.316549302       3.317832087
    0.02470632625        2.98082197       3.253256719       3.305490438       3.312354941       3.314479978       3.316247113          3.317526
    0.02495675866       2.980561487       3.252957992       3.305189076        3.31204305        3.31417079       3.315945907       3.317220537
    0.02520719108       2.980304628       3.252663537       3.304888733       3.311734736       3.313860452       3.315645214       3.316915967
    0.02545762349       2.980050004       3.252373416       3.304588958       3.311430521       3.313550623       3.315344564       3.316612527
     0.0257080559       2.979795954       3.252087256       3.304289625       3.311130122       3.313242809       3.315043613       3.316310389
    0.02595848832       2.979540805       3.251804296       3.303990871       3.310832673       3.312938056       3.314742227       3.316009632
    0.02620892073       2.979283081       3.251523524       3.303692969       3.310537044       3.312636745       3.314440498       3.315710222
    0.02645935314       2.979021625       3.251243829       3.303396164       3.310242177       3.312338598       3.314138724       3.315412005
    0.02670978556       2.978755829       3.250964084        3.30310055       3.309947344       3.312042848        3.31383731       3.315114725
    0.02696021797       2.978485717       3.250683277       3.302806026       3.309652253       3.311748516       3.313536678       3.314818052
    0.02721065038       2.978211932       3.250400532       3.302512333       3.309356992       3.311454701       3.313237165       3.314521624
     0.0274610828       2.977935596       3.250115201       3.302219158       3.309061874        3.31116079        3.31293896       3.314225106
    0.02771151521       2.977658083       3.249826934       3.301926245       3.308767248       3.310866566       3.312642107       3.313928244
    0.02796194762       2.977380773       3.249535667       3.301633455        3.30847334       3.310572181       3.312346537        3.31363092
    0.02821238004       2.977104831        3.24924158       3.301340753       3.308180169        3.31027803        3.31205212       3.313333175
    0.02846281245       2.976831067        3.24894512        3.30104815       3.307887557       3.309984561       3.311758729       3.313035223
    0.02871324486       2.976559883       3.248646979       3.300755628        3.30759522       3.309692095        3.31146628       3.312737417
    0.02896367728       2.976291297       3.248348048       3.300463066       3.307302883        3.30940071       3.311174735       3.312440201
    0.02921410969       2.976025025       3.248049351       3.300170223       3.307010378       3.309110209       3.310884076        3.31214404
     0.0294645421       2.975760586       3.247751952       3.299876791       3.306717687        3.30882019       3.310594268       3.311849348
    0.02971497452       2.975497409       3.247456853       3.299582498       3.306424917        3.30853017       3.310305214        3.31155641
    0.02996540693        2.97523493         3.2471649       3.299287224       3.306132228       3.308239732       3.310016733       3.311265341
    0.03021583934       2.974972661       3.246876704       3.298991091       3.305839756       3.307948632       3.309728568       3.310976061
    0.03046627176       2.974710284       3.246592582       3.298694521       3.305547584       3.307656889       3.309440449       3.310688353
    0.03071670417        2.97444759        3.24631245       3.298398061       3.305255599        3.30736463       3.309152013       3.310401775
    0.03096713658       2.974184653        3.24603617       3.298102483       3.304963735       3.307072207       3.308863064       3.310115913
      0.031217569       2.973921721       3.245763328       3.297808527       3.304671921       3.306779966       3.308573488       3.309830329
    0.03146800141       2.973659203        3.24549325        3.29751682       3.304380192       3.306488197       3.308283316       3.309544649
    0.03171843382       2.973397592         3.2452251       3.297227805       3.304088733       3.306197089       3.307992722       3.309258626
    0.03196886624       2.973137361       3.244957979        3.29694172       3.303797877       3.305906737          3.307702       3.308972169
    0.03221929865       2.972878859       3.244691029       3.296658621       3.303508053       3.305617183       3.307411513       3.308685352
    0.03246973106       2.972622234        3.24442351       3.296378426       3.303219708       3.305328475       3.307121637       3.308398395
    0.03272016348       2.972367412       3.244154868       3.296100965       3.302933231        3.30504072       3.306832706       3.308111617
    0.03297059589       2.972114136       3.243884781       3.295825982       3.302648903         3.3047541       3.306544969       3.307825387
     0.0332210283       2.971862046       3.243613162       3.295553112       3.302366866       3.304468858        3.30625857       3.307540049
    0.03347146072       2.971610779       3.243340115       3.295281837       3.302087129        3.30418525       3.305973542       3.307255865
    0.03372189313        2.97136005       3.243065844       3.295011466       3.301809586        3.30390349        3.30568983        3.30697296
    0.03397232554       2.971109688       3.242790575       3.294741141       3.301534024       3.303623695       3.305407323       3.306691308
    0.03422275796       2.970859636       3.242514488       3.294469895       3.301260127       3.303345854       3.305125902       3.306410738
    0.03447319037       2.970609896       3.242237705       3.294196757       3.300987469       3.303069819       3.304845471       3.306130966
    0.03472362278       2.970360456       3.241960354       3.293920893        3.30071551       3.302795312       3.304565988       3.305851658
     0.0349740552       2.970111233       3.241682629       3.293641765       3.300443606       3.302521952       3.304287471       3.305572485
    0.03522448761       2.969862046       3.241404812       3.293359273       3.300171052       3.302249282       3.304009979       3.305293195
    0.03547492002       2.969612642        3.24112727       3.293073837       3.299897159       3.301976805       3.303733582        3.30501365
    0.03572535244       2.969362757       3.240850418       3.292786388       3.299621357       3.301704016       3.303458318        3.30473385
    0.03597578485       2.969112202       3.240574656       3.292498245       3.299343305       3.301430439       3.303184143       3.304453923
    0.03622621726       2.968860942       3.240300292       3.292210881       3.299062987       3.301155682       3.302910907       3.304174091
    0.03647664968       2.968609144       3.240027486       3.291925643       3.298780759       3.300879491       3.302638339       3.303894628
    0.03672708209       2.968357183       3.239756234       3.291643474       3.298497327       3.300601801       3.302366073       3.303615811
     0.0369775145       2.968105599       3.239486438       3.291364744       3.298213659       3.300322774       3.302093694       3.303337872
    0.03722794692       2.967855007       3.239218012       3.291089218       3.297930832       3.300042804       3.301820806       3.303060974
    0.03747837933       2.967605969       3.238950983       3.290816194       3.297649848        3.29976248       3.301547107       3.302785199
    0.03772881174       2.967358869       3.238685524        3.29054477       3.297371449       3.299482516       3.301272459       3.302510554
    0.03797924416       2.967113822       3.238421928       3.290274122       3.297095984       3.299203642       3.300996921       3.302236985
    0.03822967657       2.966870626       3.238160496       3.290003705       3.296823363       3.298926483       3.300720759       3.301964398
    0.03848010898       2.966628828       3.237901385       3.289733324       3.296553101       3.298651451       3.300444406       3.301692682
     0.0387305414       2.966387914        3.23764449        3.28946308       3.296284455       3.298378672       3.300168393        3.30142172
    0.03898097381       2.966147154       3.237389428       3.289193219       3.296016598       3.298107976       3.299893257       3.301151409
    0.03923140622       2.965905883       3.237135583       3.288923973       3.295748797       3.297838934       3.299619454       3.300881656
    0.03948183864       2.965663506       3.236882218       3.288655458       3.295480543       3.297570964       3.299347277       3.300612384
    0.03973227105       2.965419612       3.236628585       3.288387653       3.295211604       3.297303447       3.299076819       3.300343533
    0.03998270346       2.965174076        3.23637402       3.288120449       3.294942017       3.297035855       3.298807963       3.300075057
    0.04023313588       2.964927135       3.236117981       3.287853726       3.294672019       3.296767843       3.298540418       3.299806928
    0.04048356829       2.964679346       3.235860069       3.287587406       3.294401963       3.296499292       3.298273777       3.299539132
     0.0407340007       2.964431496       3.235600078       3.287321476       3.294132233       3.296230311       3.298007596       3.299271671
    0.04098443312       2.964184439       3.235338009       3.287055964        3.29386318        3.29596118       3.297741471       3.299004562
    0.04123486553       2.963938913       3.235074084       3.286790911       3.293595091       3.295692273       3.297475097        3.29873783
    0.04148529795       2.963695379        3.23480885        3.28652634       3.293328165       3.295423967       3.297208316       3.298471507
    0.04173573036       2.963453934       3.234543088       3.286262248       3.293062504       3.295156573       3.296941124       3.298205622
    0.04198616277       2.963214294        3.23427771       3.285998607       3.292798115       3.294890282       3.296673663       3.297940201
    0.04223659519       2.962975873       3.234013601       3.285735371       3.292534915       3.294625154       3.296406193       3.297675259
     0.0424870276       2.962737905       3.233751469       3.285472464       3.292272743        3.29436113       3.296139037       3.297410803
    0.04273746001         2.9624996       3.233491794       3.285209788       3.292011391        3.29409807       3.295872532       3.297146832
    0.04298789243       2.962260286       3.233234965       3.284947219       3.291750635         3.2938358       3.295606975       3.296883343
    0.04323832484       2.962019519       3.232981242       3.284684648       3.291490261       3.293574162       3.295342574        3.29662033
    0.04348875725        2.96177714       3.232730605       3.284422027       3.291230085        3.29331305       3.295079423       3.296357784
    0.04373918967       2.961533282       3.232482759       3.284159424       3.290969964       3.293052424       3.294817502        3.29609569
    0.04398962208       2.961288336       3.232237143        3.28389706       3.290709796         3.2927923       3.294556691       3.295834024
    0.04424005449       2.961042875        3.23199298       3.283635305       3.290449526       3.292532724       3.294296817       3.295572746
    0.04449048691       2.960797569       3.231749356       3.283374628        3.29018916       3.292273727         3.2940377       3.295311805
    0.04474091932       2.960553097       3.231505336       3.283115529       3.289928779       3.292015295       3.293779197       3.295051138
    0.04499135173       2.960310074       3.231260113       3.282858479       3.289668564        3.29175735       3.293521234       3.294790687
    0.04524178415       2.960068979       3.231013142       3.282603833       3.289408801       3.291499769       3.293263804       3.294530407