# Probe 0 (2.4 2.295 1.5)
#           Probe                 0
#            Time
    1.1999904e-06            293.15
  2.639965056e-06            293.15
  4.367944597e-06            293.15
  6.441505713e-06            293.15
   8.92973777e-06            293.15
  1.191552707e-05            293.15
  1.549838863e-05            293.15
  1.979776087e-05            293.15
  2.495674128e-05            293.15
  3.114713435e-05            293.15
  3.857523794e-05            293.15
  4.748896225e-05            293.15
  5.818543142e-05            293.15
  7.102064463e-05            293.15
  8.642131685e-05            293.15
  0.0001049009832            293.15
  0.0001270765827            293.15
  0.0001536896689            293.15
  0.0001856219625            293.15
  0.0002239407148            293.15
  0.0002699019884            293.15
  0.0003250351347            293.15
  0.0003911802278            293.15
  0.0004705543394            293.15
  0.0005658032734            293.15
  0.0006799700095            293.15
  0.0008169700928            293.15
  0.0009814618316            293.15
   0.001179117227            293.15
   0.001416111804       293.1500002
   0.001666544217       293.1500009
   0.001916976631       293.1500039
   0.002167409044       293.1500131
   0.002417841458        293.150038
   0.002668273871       293.1500976
   0.002918706284        293.150227
   0.003169138698       293.1504846
   0.003419571111       293.1509602
   0.003670003524       293.1517809
   0.003920435938       293.1531107
   0.004170868351       293.1551433
   0.004421300765       293.1580815
   0.004671733178       293.1621032
   0.004922165591       293.1673156
   0.005172598005       293.1736984
   0.005423030418       293.1810479
   0.005673462831        293.188935
   0.005923895245        293.196695
   0.006174327658       293.2034692
   0.006424760072       293.2083102
   0.006675192485       293.2103493
   0.006925624898       293.2089982
   0.007176057312       293.2041367
   0.007426489725       293.1962744
   0.007676922139       293.1864498
   0.007927354552       293.1761502
   0.008177786965       293.1670486
   0.008428219379       293.1606851
   0.008678651792       293.1582009
   0.008929084205        293.160147
   0.009179516619       293.1665452
   0.009429949032       293.1768695
   0.009680381446       293.1900757
   0.009930813859       293.2047542
    0.01018124627       293.2192912
    0.01043167869       293.2319765
     0.0106821111       293.2411193
    0.01093254351       293.2452572
    0.01118297593       293.2434577
    0.01143340834       293.2356266
    0.01168384075       293.2226541
    0.01193427317       293.2062749
    0.01218470558       293.1888154
    0.01243513799       293.1728558
    0.01268557041        293.160876
    0.01293600282       293.1548449
    0.01318643523       293.1559145
    0.01343686765       293.1641225
    0.01368730006       293.1783583
    0.01393773247       293.1965658
    0.01418816489       293.2162536
     0.0144385973       293.2349918
    0.01468902971       293.2508576
    0.01493946213       293.2627133
    0.01518989454       293.2703198
    0.01544032695       293.2742571
    0.01569075937       293.2755869
    0.01594119178       293.2755103
    0.01619162419       293.2749652
    0.01644205661       293.2743991
    0.01669248902       293.2737611
    0.01694292143       293.2726225
    0.01719335385        293.270367
    0.01744378626       293.2664405
    0.01769421867       293.2605504
    0.01794465109       293.2528391
     0.0181950835       293.2439601
    0.01844551591       293.2350005
    0.01869594833       293.2272743
    0.01894638074       293.2220447
    0.01919681315       293.2202518
    0.01944724557       293.2223059
    0.01969767798       293.2279604
    0.01994811039       293.2363663
    0.02019854281        293.246232
    0.02044897522       293.2561176
    0.02069940763       293.2648647
    0.02094984005       293.2717833
    0.02120027246       293.2767518
    0.02145070487       293.2801449
    0.02170113729       293.2826532
     0.0219515697       293.2850433
    0.02220200211       293.2879042
    0.02245243453       293.2912943
    0.02270286694        293.294725
    0.02295329935       293.2973526
    0.02320373177       293.2982367
    0.02345416418       293.2966679
    0.02370459659       293.2924135
    0.02395502901       293.2858229
    0.02420546142       293.2777794
    0.02445589384       293.2695819
    0.02470632625       293.2626991
    0.02495675866       293.2585172
    0.02520719108        293.257968
    0.02545762349        293.261404
     0.0257080559       293.2685708
    0.02595848832       293.2787396
    0.02620892073        293.290868
    0.02645935314       293.3037328
    0.02670978556       293.3160718
    0.02696021797       293.3267525
    0.02721065038       293.3349287
     0.0274610828        293.340086
    0.02771151521       293.3420257
    0.02796194762       293.3407653
    0.02821238004       293.3364843
    0.02846281245       293.3294221
    0.02871324486       293.3198866
    0.02896367728       293.3083084
    0.02921410969       293.2952834
     0.0294645421       293.2816041
    0.02971497452       293.2682318
    0.02996540693       293.2562489
    0.03021583934       293.2467628
    0.03046627176       293.2407821
    0.03071670417       293.2391462
    0.03096713658       293.2424615
      0.031217569       293.2509794
    0.03146800141       293.2645574
    0.03171843382       293.2825421
    0.03196886624       293.3037488
    0.03221929865       293.3265749
    0.03246973106       293.3491929
    0.03272016348       293.3697595
    0.03297059589       293.3865886
     0.0332210283       293.3983158
    0.03347146072       293.4040801
    0.03372189313       293.4036854
    0.03397232554       293.3976375
    0.03422275796       293.3871281
    0.03447319037        293.373833
    0.03472362278       293.3595434
     0.0349740552       293.3458136
    0.03522448761       293.3337923
    0.03547492002       293.3241904
    0.03572535244       293.3172679
    0.03597578485       293.3128218
    0.03622621726       293.3103058
    0.03647664968       293.3089128
    0.03672708209       293.3078918
     0.0369775145       293.3067889
    0.03722794692        293.305553
    0.03747837933       293.3045029
    0.03772881174       293.3041918
    0.03797924416       293.3052224
    0.03822967657       293.3080775
    0.03848010898       293.3130201
     0.0387305414       293.3200432
    0.03898097381       293.3288518
    0.03923140622       293.3388932
    0.03948183864       293.3494657
    0.03973227105       293.3598683
    0.03998270346       293.3694973
    0.04023313588       293.3778845
    0.04048356829        293.384662
     0.0407340007       293.3895071
    0.04098443312       293.3921364
    0.04123486553         293.39231
    0.04148529795       293.3898702
    0.04173573036       293.3848276
    0.04198616277       293.3774576
    0.04223659519       293.3683228
     0.0424870276       293.3582905
    0.04273746001       293.3484661
    0.04298789243        293.340049
    0.04323832484       293.3341732
    0.04348875725       293.3317647
    0.04373918967       293.3334056
    0.04398962208       293.3392325
    0.04424005449       293.3488723
    0.04449048691       293.3614684
    0.04474091932       293.3757722
    0.04499135173       293.3903058
    0.04524178415       293.4035791
    0.04549221656       293.4142676
    0.04574264897       293.4213793
    0.04599308139       293.4243787
     0.0462435138       293.4232408
    0.04649394621       293.4183936
    0.04674437863       293.4106204
    0.04699481104       293.4009226
    0.04724524345       293.3903675
    0.04749567587       293.3799137
    0.04774610828       293.3704336
    0.04799654069       293.3626713
    0.04824697311       293.3571459
    0.04849740552       293.3541141
    0.04874783793        293.353637
    0.04899827035       293.3555769
    0.04924870276       293.3596981
    0.04949913517       293.3657436
    0.04974956759       293.3734306
             0.05       293.3824528
          0.05025       293.3925276
           0.0505       293.4034505
          0.05075       293.4149605
            0.051       293.4266732
          0.05125       293.4380607
           0.0515       293.4484682
          0.05175       293.4571475
            0.052       293.4633239
          0.05225       293.4663056
           0.0525       293.4656135
          0.05275       293.4610908
            0.053       293.4529543
          0.05325        293.441789
           0.0535       293.4285179
          0.05375       293.4142965
            0.054       293.4003818
          0.05425       293.3879975
           0.0545        293.378224
          0.05475       293.3719188
            0.055       293.3696778
          0.05525       293.3717531
           0.0555       293.3780603
          0.05575       293.3882254
            0.056       293.4016012
          0.05625       293.4172821
           0.0565        293.434159
          0.05675       293.4510246
            0.057         293.46672
          0.05725       293.4802856
           0.0575       293.4910634
          0.05775       293.4987178
            0.058       293.5031858
          0.05825       293.5046079
           0.0585       293.5032753
          0.05875       293.4996075
            0.059       293.4941195
          0.05925       293.4873511
           0.0595       293.4799168
          0.05975       293.4724578
             0.06       293.4655909
          0.06025        293.459858
           0.0605        293.455668
          0.06075        293.453244
            0.061       293.4525882
          0.06125       293.4534901
           0.0615       293.4555811
          0.06175        293.458461
            0.062       293.4618265
          0.06225       293.4655528
           0.0625       293.4696948
          0.06275       293.4744135
            0.063       293.4798522
          0.06325       293.4860102
           0.0635       293.4926731
          0.06375       293.4994284
            0.064       293.5057549
          0.06425       293.5111478
           0.0645       293.5152221
          0.06475       293.5177833
            0.065       293.5188537
          0.06525       293.5186546
           0.0655       293.5175576
          0.06575       293.5160101
            0.066       293.5144599
          0.06625       293.5132945
           0.0665       293.5128222
          0.06675       293.5132864
            0.067       293.5148981
          0.06725       293.5178458
           0.0675       293.5222764
          0.06775       293.5282538
            0.068        293.535714
          0.06825       293.5444329
           0.0685       293.5540197
          0.06875       293.5639371
            0.069       293.5735473
          0.06925       293.5821821
    0.06949798387        293.589181
         0.069742       293.5940945
      0.069984064       293.5967662
    0.07022419149       293.5971817
    0.07046239796       293.5955124
    0.07069869877       293.5920763
    0.07093310918       293.5872964
    0.07116751959       293.5816175
     0.0714000396       293.5756146
    0.07163068444       293.5698236
    0.07186132928       293.5646836
    0.07209009896       293.5606187
    0.07231886864       293.5578552
    0.07254576316       293.5565633
    0.07277079789       293.5567969
    0.07299583262       293.5585866
    0.07321900755       293.5619215
    0.07344033807       293.5667642
    0.07366166859       293.5731093
    0.07388115468       293.5808237
    0.07409881173       293.5897663
    0.07431646877       293.5998249
    0.07453229676       293.6106486
    0.07474812476       293.6219688
     0.0749621237       293.6332564
    0.07517430909       293.6440335
    0.07538649448       293.6539023
    0.07559686633       293.6623357
    0.07580723817       293.6690496
    0.07601579646       293.6737595
    0.07622255683       293.6764158
    0.07642931721        293.677117
    0.07663427967       293.6760709
    0.07683745985       293.6736132
    0.07704064002       293.6700889
     0.0772438202       293.6658555
    0.07744520232       293.6612849
    0.07764658444       293.6566174
    0.07784616851       293.6521165
    0.07804575258       293.6479182
    0.07824353859       293.6442099
     0.0784413246       293.6410897
    0.07863731256       293.6387336
    0.07883330052       293.6372793
    0.07902749042        293.636919
    0.07922168033       293.6378366
    0.07941407218       293.6401988
    0.07960646403       293.6441636
    0.07979705782       293.6497622
    0.07998765161        293.657023
    0.08017644735       293.6657505
    0.08036524309       293.6757871
    0.08055224078       293.6866942
    0.08073745753       293.6980455
    0.08092267429       293.7094904
    0.08110611011       293.7204548
    0.08128954593       293.7306035
    0.08147120083       293.7394672
    0.08165285572       293.7468422
    0.08183272969       293.7524799
    0.08201260365       293.7563775
    0.08219069668       293.7585694
    0.08236702642       293.7592627
    0.08254335615       293.7587271
    0.08271792259       293.7572882
    0.08289248903       293.7552803
    0.08306529217       293.7530554
    0.08323809531       293.7508824
    0.08340913516       293.7490087
      0.083580175       293.7475592
    0.08375121484       293.7465893
    0.08392047302       293.7460795
     0.0840897312       293.7459417
    0.08425898938       293.7460752
    0.08442644694       293.7463808
     0.0845939045       293.7467945
    0.08476136206       293.7473021
    0.08492699943       293.7479436
     0.0850926368       293.7488251
    0.08525827417       293.7500873
    0.08542391154       293.7518878
    0.08558768781       293.7543411
    0.08575146409         293.75757
    0.08591524036       293.7616248
    0.08607901664         293.76649
    0.08624088853       293.7720144
    0.08640276043        293.778112
    0.08656463233       293.7845997
    0.08672650423       293.7912638
    0.08688642587        293.797796
    0.08704634751       293.8040442
    0.08720626914       293.8097849
    0.08736421644       293.8147594
    0.08752216373       293.8188807
    0.08768011102       293.8220359
    0.08783605899       293.8241518
    0.08799200695        293.825285
    0.08814795491       293.8255073
    0.08830187757       293.8249591
    0.08845580024       293.8238144
     0.0886097229       293.8222669
    0.08876364556       293.8205228
    0.08891548819        293.818807
    0.08906733082       293.8172731
    0.08921917345       293.8160682
    0.08936890715       293.8153122
    0.08951864085       293.8150639
    0.08966837455       293.8153789
    0.08981810825       293.8162992
     0.0899656719       293.8178299
    0.09011323555       293.8200026
     0.0902607992       293.8228258
    0.09040836285       293.8262941
     0.0905559265       293.8303877
    0.09070121994       293.8350002
    0.09084651337       293.8401504
    0.09099180681       293.8457881
    0.09113710025       293.8518495
    0.09128239369       293.8582559
    0.09142530527        293.864806
    0.09156821685       293.8715073
    0.09171112843       293.8782664
    0.09185404001       293.8850016
    0.09199695158       293.8916497
    0.09213986316       293.8981663
    0.09228022275       293.9044077
    0.09242058234       293.9104623
    0.09256094192        293.916294
    0.09270130151       293.9218527
    0.09284166109       293.9270687
    0.09297932146       293.9317591
    0.09311698182       293.9359325
    0.09325464219       293.9394809
    0.09339230255       293.9422965
    0.09352996291        293.944286
    0.09366762328       293.9453849
     0.0938023547       293.9455752
    0.09393708612       293.9449099
    0.09407181754       293.9434546
    0.09420654895       293.9413177
    0.09434128037       293.9386426
    0.09447601179       293.9355971
    0.09460753532       293.9324363
    0.09473905885       293.9292543
    0.09487058238       293.9262013
    0.09500210591       293.9234093
    0.09513362944       293.9209889
    0.09526515297       293.9190273
     0.0953966765       293.9175867
    0.09552820002       293.9167036
    0.09565596574       293.9163928
    0.09578373145       293.9166177
    0.09591149716       293.9173679
    0.09603926288       293.9186338
    0.09616702859       293.9204107
    0.09629479431       293.9226988
    0.09642256002       293.9255013
    0.09655032573       293.9288195
    0.09667809145       293.9326461
    0.09680585716       293.9369553
    0.09693362287       293.9416949
    0.09706138859       293.9467816
    0.09718383073       293.9518806
    0.09730627287       293.9570768
    0.09742871501       293.9622388
    0.09755115716       293.9672371
     0.0976735993       293.9719562
    0.09779604144       293.9763059
    0.09791848358       293.9802282
    0.09804092572       293.9836999
    0.09816336787       293.9867325
    0.09828581001       293.9893701
    0.09840825215       293.9916828
    0.09853069429        293.993756
    0.09865313644       293.9956745
    0.09877557858       293.9975068
    0.09889802072       293.9992937
    0.09902046286       294.0010444
      0.099142905       294.0027365
    0.09926534715       294.0043218
    0.09938778929       294.0057372
    0.09951023143       294.0069162
    0.09963267357       294.0078061
    0.09975511572       294.0083841
    0.09987755786       294.0086632
              0.1       294.0087004
     0.1001184834       294.0086039
     0.1002366861       294.0085146
     0.1003546086        294.008595
     0.1004722517       294.0090091
     0.1005898948       294.0098982
     0.1007072585       294.0113555
     0.1008243434       294.0134147
     0.1009411502       294.0160397
     0.1010576795        294.019123
      0.101173932       294.0224954
     0.1012899085       294.0259444
     0.1014056094       294.0292407
     0.1015210355       294.0321666
     0.1016359146       294.0345391
     0.1017505214       294.0362505
     0.1018648566       294.0372639
      0.101978921       294.0376279
      0.102092715       294.0374731
     0.1022062394       294.0369986
     0.1023194947       294.0364508
     0.1024327501       294.0360945
     0.1025457364       294.0361863
     0.1026584544        294.036941
     0.1027709046       294.0385101
     0.1028830877       294.0409677
     0.1029952709       294.0443163
     0.1031071869       294.0484684
     0.1032188364       294.0532801
     0.1033299556       294.0585538
     0.1034408108       294.0640974
     0.1035514027       294.0697101
     0.1036617319       294.0752084
     0.1037717991       294.0804378
     0.1038813446       294.0852679
     0.1039906305       294.0896293
     0.1040996574       294.0934747
      0.104208426        294.096786
     0.1043169368        294.099568
     0.1044251905       294.1018411
     0.1045331877       294.1036359
      0.104640929       294.1049903
     0.1047484149       294.1059498
     0.1048556462       294.1065692
     0.1049626233       294.1069128
      0.105069347       294.1070552
     0.1051758177       294.1070788
     0.1052822884         294.10707
     0.1053885063       294.1071137
     0.1054944718       294.1072845
     0.1056001857       294.1076379
     0.1057056484        294.108204
     0.1058111112       294.1089857
     0.1059163228        294.109954
     0.1060212839       294.1110542
     0.1061259952       294.1122108
     0.1062307064       294.1133388
     0.1063351677       294.1143471
     0.1064393797       294.1151578
      0.106543343       294.1157155
     0.1066470582        294.115999
     0.1067505258       294.1160302
     0.1068539935       294.1158794
     0.1069572136        294.115664
     0.1070601868       294.1155418
     0.1071629136       294.1156963
     0.1072653947        294.116316
     0.1073676305       294.1175711
     0.1074696219       294.1195895
     0.1075713692       294.1224368
     0.1076728731       294.1261041
     0.1077741342       294.1305041
      0.107875153        294.135479
     0.1079759301       294.1408146
     0.1080764662        294.146261
     0.1081770022       294.1515682
     0.1082772972       294.1564752
     0.1083773516       294.1607733
     0.1084774061       294.1643211
       0.10857722       294.1670368
      0.108676794       294.1689366
     0.1087761286       294.1701174
     0.1088752245       294.1707412
     0.1089740821       294.1710152
     0.1090729397       294.1711674
     0.1091715591       294.1714194
     0.1092699409       294.1719602
     0.1093680857       294.1729198
     0.1094659939       294.1743637
     0.1095636662       294.1762844
     0.1096613385       294.1785925
     0.1097587749       294.1811165
     0.1098559759       294.1836437
     0.1099529421       294.1859414
     0.1100499084       294.1877837
     0.1101466398        294.188959
     0.1102431371       294.1893075
     0.1103396343       294.1887292
     0.1104358973        294.187196
     0.1105319267       294.1847548
      0.110627723       294.1815196
     0.1107235193       294.1776491
     0.1108190825         294.17336
     0.1109144132       294.1688838
     0.1110097439       294.1644459
     0.1111048421       294.1602833
     0.1111997083       294.1565983
     0.1112943432       294.1535598
     0.1113889781       294.1512922
     0.1114833815        294.149889
     0.1115775542       294.1493885
     0.1116717269       294.1497834
     0.1117656687       294.1510211
     0.1118593803       294.1530047
     0.1119530919       294.1556116
     0.1120465732        294.158684
     0.1121398249       294.1620594
     0.1122330766       294.1655922
     0.1123263282       294.1691507
     0.1124193496       294.1726276
     0.1125123711       294.1759732
     0.1126051622       294.1791621
     0.1126979534       294.1822221
     0.1127905143       294.1851961
     0.1128830752       294.1881635
     0.1129754059       294.1912014
     0.1130677365       294.1944052
     0.1131600672       294.1978586
      0.113252167       294.2016027
     0.1133442668       294.2057145
     0.1134361358       294.2102216
     0.1135280048       294.2151453
      0.113619643       294.2204546
      0.113711051       294.2261001
     0.1138024589       294.2320201
     0.1138936366       294.2381017
     0.1139845846       294.2442329
     0.1140755326       294.2503115
      0.114166251       294.2562057
     0.1142567402       294.2618043
     0.1143472295       294.2670181
     0.1144374897        294.271746
     0.1145275213       294.2759257
     0.1146173251       294.2795254
     0.1147071288       294.2825533
     0.1147967046       294.2850318
     0.1148862805       294.2870209
     0.1149756283        294.288584
     0.1150647489       294.2897972
     0.1151538694        294.290737
     0.1152427626       294.2914669
     0.1153316558       294.2920409
     0.1154203216       294.2924923
     0.1155089875       294.2928354
      0.115597426        294.293059
     0.1156856377       294.2931295
     0.1157738494       294.2929927
     0.1158618344       294.2925796
     0.1159495932       294.2918142
     0.1160371264       294.2906226
     0.1161246595       294.2889378
     0.1162119671       294.2867197
     0.1162992747       294.2839471
     0.1163863567       294.2806397
     0.1164732136       294.2768399
     0.1165600706       294.2726071
     0.1166467025       294.2680494
     0.1167333345       294.2632762
     0.1168197414       294.2584377
     0.1169061483       294.2536673
     0.1169923302       294.2491199
     0.1170782877       294.2449249
     0.1171642452       294.2411828
     0.1172499782       294.2379918
     0.1173357113       294.2354074
     0.1174212199       294.2334771
     0.1175065046       294.2322194
     0.1175917894       294.2316361
     0.1176768503       294.2317213
     0.1177619112       294.2324585
     0.1178467483       294.2338192
     0.1179315854       294.2357695
     0.1180161986       294.2382536
     0.1181008119       294.2412106
     0.1181852012       294.2445481
     0.1182695906       294.2481746
       0.11835398       294.2519807
      0.118438145        294.255844
     0.1185223099       294.2596697
     0.1186062504       294.2633599
     0.1186901909       294.2668612
      0.118773907       294.2701311
     0.1188576231        294.273177
     0.1189413391       294.2760268
     0.1190248301       294.2787276
     0.1191083212       294.2813621
     0.1191915871       294.2839921
     0.1192748531       294.2867301
     0.1193578941       294.2896626
      0.119440935       294.2928752
     0.1195237509       294.2964146
     0.1196065668       294.3003174
     0.1196891576         294.30457
     0.1197717485       294.3091508
     0.1198541143       294.3139881
     0.1199364801        294.319014
     0.1200186209       294.3241178
     0.1201007616       294.3292051
     0.1201826774       294.3341479
     0.1202645931       294.3388452
     0.1203462838       294.3431738
     0.1204279744       294.3470463
     0.1205094401       294.3503703
     0.1205909057        294.353093
     0.1206723713       294.3551712
     0.1207536113        294.356581
     0.1208348513       294.3573335
     0.1209158656       294.3574604
     0.1209968799       294.3570215
     0.1210776685        294.356099
     0.1211584572       294.3547862
     0.1212390201       294.3531906
     0.1213195831       294.3514155
     0.1213999204       294.3495676
     0.1214802577       294.3477322
     0.1215603693       294.3459912
      0.121640481       294.3444008
     0.1217203669       294.3430087
     0.1218002529       294.3418339
     0.1218799132       294.3408806
     0.1219595735       294.3401254
     0.1220392338       294.3395279
     0.1221186678       294.3390312
     0.1221981018       294.3385608
     0.1222775358       294.3380342
     0.1223567428       294.3373674
     0.1224359499       294.3364788
     0.1225151569       294.3353031
     0.1225941364        294.333803
     0.1226731158        294.331964
     0.1227520952       294.3298077
     0.1228308464       294.3273965
     0.1229095976       294.3248113
     0.1229883487       294.3221666
     0.1230670999       294.3195995
     0.1231456215       294.3172692
     0.1232241431       294.3153212
     0.1233026646       294.3139024
     0.1233811862       294.3131415
     0.1234597078       294.3131358
     0.1235379977        294.313938
     0.1236162877       294.3155569
     0.1236945776       294.3179568
     0.1237728676       294.3210587
     0.1238511575       294.3247471
     0.1239292138       294.3288658
       0.12400727       294.3332623
     0.1240853263       294.3377794
     0.1241631481       294.3422663
     0.1242409699       294.3466102
     0.1243187918       294.3507028
     0.1243963785       294.3544536
     0.1244739652       294.3578289
      0.124551552       294.3608122
     0.1246289029       294.3634013
     0.1247062538       294.3656224
     0.1247836047       294.3674963
     0.1248607191       294.3690387
     0.1249378334        294.370274
     0.1250149478       294.3712194
     0.1250920621        294.371891
     0.1251689385       294.3723147
     0.1252458148       294.3725253
     0.1253226912       294.3725668
     0.1253993288       294.3724993
     0.1254759664       294.3724009
      0.125552604       294.3723694
     0.1256290021       294.3725205
     0.1257054002       294.3729851
     0.1257817983       294.3739011
     0.1258579562       294.3753968
     0.1259341141       294.3775904
     0.1260102719       294.3805667
     0.1260861888       294.3843542
     0.1261621057       294.3889502
     0.1262380225       294.3942877
     0.1263136976       294.4002227
     0.1263893727       294.4065956
     0.1264650478        294.413185
     0.1265404803       294.4197145
     0.1266159129       294.4259302
     0.1266913454       294.4315549
     0.1267665346       294.4363139
     0.1268417238        294.440004
      0.126916913       294.4424564
     0.1269918581       294.4435421
     0.1270668032       294.4432649
     0.1271417483       294.4416363
     0.1272164485       294.4387718
     0.1272911486       294.4348461
     0.1273658488       294.4300891
     0.1274403032       294.4247784
     0.1275147577       294.4191675
     0.1275892121       294.4135188
       0.12766342       294.4080926
     0.1277376279       294.4030795
     0.1278118359       294.3986455
     0.1278857964       294.3949144
     0.1279597569       294.3919346
     0.1280337175       294.3897285
     0.1281074298        294.388259
     0.1281811422       294.3874217
     0.1282548546       294.3870856
     0.1283285669       294.3870955
     0.1284020294        294.387312
     0.1284754919       294.3876055
     0.1285489544       294.3878658
     0.1286224169       294.3880099
     0.1286956278       294.3879895
     0.1287688387       294.3877945
     0.1288420496         294.38745
     0.1289152605       294.3870121
      0.128988218       294.3865588
     0.1290611756       294.3861739
     0.1291341332       294.3859404
     0.1292070908       294.3859305
     0.1292800483       294.3861983
     0.1293527499       294.3867737
     0.1294254515       294.3876674
     0.1294981531       294.3888705
     0.1295708547       294.3903599
     0.1296435563       294.3921054
     0.1297159991       294.3940688
      0.129788442       294.3962297
     0.1298608849       294.3985683
     0.1299333277        294.401071
     0.1300057706       294.4037264
     0.1300782134       294.4065222
     0.1301503938       294.4094308
     0.1302225742       294.4124393
     0.1302947546         294.41552
      0.130366935       294.4186442
     0.1304391154       294.4217851
     0.1305112957       294.4249169
     0.1305832098       294.4280026