# Probe 0 (4.8 0.005 1.5)
#           Probe                 0
#            Time
    1.1999904e-06                 1
  2.639965056e-06                 1
  4.367944597e-06                 1
  6.441505713e-06                 1
   8.92973777e-06                 1
  1.191552707e-05                 1
  1.549838863e-05                 1
  1.979776087e-05                 1
  2.495674128e-05                 1
  3.114713435e-05                 1
  3.857523794e-05                 1
  4.748896225e-05                 1
  5.818543142e-05                 1
  7.102064463e-05                 1
  8.642131685e-05                 1
  0.0001049009832                 1
  0.0001270765827                 1
  0.0001536896689                 1
  0.0001856219625                 1
  0.0002239407148                 1
  0.0002699019884                 1
  0.0003250351347                 1
  0.0003911802278                 1
  0.0004705543394                 1
  0.0005658032734                 1
  0.0006799700095                 1
  0.0008169700928                 1
  0.0009814618316                 1
   0.001179117227                 1
   0.001416111804                 1
   0.001666544217                 1
   0.001916976631                 1
   0.002167409044                 1
   0.002417841458                 1
   0.002668273871                 1
   0.002918706284                 1
   0.003169138698                 1
   0.003419571111                 1
   0.003670003524                 1
   0.003920435938                 1
   0.004170868351                 1
   0.004421300765                 1
   0.004671733178                 1
   0.004922165591                 1
   0.005172598005                 1
   0.005423030418                 1
   0.005673462831                 1
   0.005923895245                 1
   0.006174327658                 1
   0.006424760072                 1
   0.006675192485                 1
   0.006925624898                 1
   0.007176057312                 1
   0.007426489725                 1
   0.007676922139                 1
   0.007927354552                 1
   0.008177786965                 1
   0.008428219379                 1
   0.008678651792                 1
   0.008929084205                 1
   0.009179516619                 1
   0.009429949032                 1
   0.009680381446                 1
   0.009930813859                 1
    0.01018124627                 1
    0.01043167869                 1
     0.0106821111                 1
    0.01093254351                 1
    0.01118297593                 1
    0.01143340834                 1
    0.01168384075                 1
    0.01193427317                 1
    0.01218470558                 1
    0.01243513799                 1
    0.01268557041                 1
    0.01293600282                 1
    0.01318643523                 1
    0.01343686765                 1
    0.01368730006                 1
    0.01393773247                 1
    0.01418816489                 1
     0.0144385973                 1
    0.01468902971                 1
    0.01493946213                 1
    0.01518989454                 1
    0.01544032695                 1
    0.01569075937                 1
    0.01594119178                 1
    0.01619162419                 1
    0.01644205661                 1
    0.01669248902                 1
    0.01694292143                 1
    0.01719335385                 1
    0.01744378626                 1
    0.01769421867                 1
    0.01794465109                 1
     0.0181950835                 1
    0.01844551591                 1
    0.01869594833                 1
    0.01894638074                 1
    0.01919681315                 1
    0.01944724557                 1
    0.01969767798                 1
    0.01994811039                 1
    0.02019854281                 1
    0.02044897522                 1
    0.02069940763                 1
    0.02094984005                 1
    0.02120027246                 1
    0.02145070487                 1
    0.02170113729                 1
     0.0219515697                 1
    0.02220200211                 1
    0.02245243453                 1
    0.02270286694                 1
    0.02295329935                 1
    0.02320373177                 1
    0.02345416418                 1
    0.02370459659                 1
    0.02395502901                 1
    0.02420546142                 1
    0.02445589384                 1
    0.02470632625                 1
    0.02495675866                 1
    0.02520719108                 1
    0.02545762349                 1
     0.0257080559                 1
    0.02595848832                 1
    0.02620892073                 1
    0.02645935314                 1
    0.02670978556                 1
    0.02696021797                 1
    0.02721065038                 1
     0.0274610828                 1
    0.02771151521                 1
    0.02796194762                 1
    0.02821238004                 1
    0.02846281245                 1
    0.02871324486                 1
    0.02896367728                 1
    0.02921410969                 1
     0.0294645421                 1
    0.02971497452                 1
    0.02996540693                 1
    0.03021583934                 1
    0.03046627176                 1
    0.03071670417                 1
    0.03096713658                 1
      0.031217569                 1
    0.03146800141                 1
    0.03171843382                 1
    0.03196886624                 1
    0.03221929865                 1
    0.03246973106                 1
    0.03272016348                 1
    0.03297059589                 1
     0.0332210283                 1
    0.03347146072                 1
    0.03372189313                 1
    0.03397232554                 1
    0.03422275796                 1
    0.03447319037                 1
    0.03472362278                 1
     0.0349740552                 1
    0.03522448761                 1
    0.03547492002                 1
    0.03572535244                 1
    0.03597578485                 1
    0.03622621726                 1
    0.03647664968                 1
    0.03672708209                 1
     0.0369775145                 1
    0.03722794692                 1
    0.03747837933                 1
    0.03772881174                 1
    0.03797924416                 1
    0.03822967657                 1
    0.03848010898                 1
     0.0387305414                 1
    0.03898097381                 1
    0.03923140622                 1
    0.03948183864                 1
    0.03973227105                 1
    0.03998270346                 1
    0.04023313588                 1
    0.04048356829                 1
     0.0407340007                 1
    0.04098443312                 1
    0.04123486553                 1
    0.04148529795                 1
    0.04173573036                 1
    0.04198616277                 1
    0.04223659519                 1
     0.0424870276                 1
    0.04273746001                 1
    0.04298789243                 1
    0.04323832484                 1
    0.04348875725                 1
    0.04373918967                 1
    0.04398962208                 1
    0.04424005449                 1
    0.04449048691                 1
    0.04474091932                 1
    0.04499135173                 1
    0.04524178415                 1
    0.04549221656                 1
    0.04574264897                 1
    0.04599308139                 1
     0.0462435138                 1
    0.04649394621                 1
    0.04674437863                 1
    0.04699481104                 1
    0.04724524345                 1
    0.04749567587                 1
    0.04774610828                 1
    0.04799654069                 1
    0.04824697311                 1
    0.04849740552                 1
    0.04874783793                 1
    0.04899827035                 1
    0.04924870276                 1
    0.04949913517                 1
    0.04974956759                 1
             0.05                 1
          0.05025                 1
           0.0505                 1
          0.05075                 1
            0.051                 1
          0.05125                 1
           0.0515                 1
          0.05175                 1
            0.052                 1
          0.05225                 1
           0.0525                 1
          0.05275                 1
            0.053                 1
          0.05325                 1
           0.0535                 1
          0.05375                 1
            0.054                 1
          0.05425                 1
           0.0545                 1
          0.05475                 1
            0.055                 1
          0.05525                 1
           0.0555                 1
          0.05575                 1
            0.056                 1
          0.05625                 1
           0.0565                 1
          0.05675                 1
            0.057                 1
          0.05725                 1
           0.0575                 1
          0.05775                 1
            0.058                 1
          0.05825                 1
           0.0585                 1
          0.05875                 1
            0.059                 1
          0.05925                 1
           0.0595                 1
          0.05975                 1
             0.06                 1
          0.06025                 1
           0.0605                 1
          0.06075                 1
            0.061                 1
          0.06125                 1
           0.0615                 1
          0.06175                 1
            0.062                 1
          0.06225                 1
           0.0625                 1
          0.06275                 1
            0.063                 1
          0.06325                 1
           0.0635                 1
          0.06375                 1
            0.064                 1
          0.06425                 1
           0.0645                 1
          0.06475                 1
            0.065                 1
          0.06525                 1
           0.0655                 1
          0.06575                 1
            0.066                 1
          0.06625                 1
           0.0665                 1
          0.06675                 1
            0.067                 1
          0.06725                 1
           0.0675                 1
          0.06775                 1
            0.068                 1
          0.06825                 1
           0.0685                 1
          0.06875      0.9999999999
            0.069      0.9999999999
          0.06925      0.9999999999
           0.0695      0.9999999999
          0.06975      0.9999999999
             0.07      0.9999999999
          0.07025      0.9999999999
           0.0705      0.9999999999
          0.07075      0.9999999999
            0.071      0.9999999999
          0.07125      0.9999999999
           0.0715      0.9999999999
          0.07175      0.9999999998
            0.072      0.9999999998
          0.07225      0.9999999998
           0.0725      0.9999999998
          0.07275      0.9999999998
    0.07299772727      0.9999999998
    0.07324545455      0.9999999997
    0.07349090909      0.9999999997
    0.07373636364      0.9999999997
    0.07397954545      0.9999999996
    0.07422272727      0.9999999996
    0.07446363636      0.9999999996
    0.07470454545      0.9999999995
    0.07494318182      0.9999999995
     0.0751795669      0.9999999995
    0.07541372192      0.9999999994
    0.07564787695      0.9999999994
    0.07587980194      0.9999999993
    0.07610951811      0.9999999992
    0.07633923428      0.9999999992
    0.07656674164      0.9999999991
      0.076794249       0.999999999
    0.07701954756       0.999999999
    0.07724484611      0.9999999989
    0.07746793586      0.9999999988
     0.0776910256      0.9999999987
    0.07791190653      0.9999999986
    0.07813278747      0.9999999985
    0.07835145959      0.9999999983
    0.07857013172      0.9999999982
    0.07878880384      0.9999999981
    0.07900524462      0.9999999979
     0.0792216854      0.9999999978
    0.07943812618      0.9999999976
    0.07965231236      0.9999999974
    0.07986649855      0.9999999972
    0.08007843014       0.999999997
    0.08029036174      0.9999999968
    0.08050003874      0.9999999966
    0.08070748514      0.9999999964
    0.08091493153      0.9999999961
    0.08112014732      0.9999999959
    0.08132315649      0.9999999956
    0.08152616566      0.9999999953
    0.08172696821       0.999999995
    0.08192777075      0.9999999946
    0.08212636668      0.9999999943
     0.0823249626      0.9999999939
    0.08252135191      0.9999999935
    0.08271774121      0.9999999931
     0.0829119239      0.9999999926
    0.08310610658      0.9999999922
    0.08329808264      0.9999999917
     0.0834900587      0.9999999911
    0.08367982814      0.9999999906
    0.08386959758        0.99999999
    0.08405936702      0.9999999894
    0.08424690388      0.9999999888
    0.08443444074      0.9999999881
     0.0846219776      0.9999999874
    0.08480725498      0.9999999866
    0.08499253236      0.9999999858
    0.08517780973       0.999999985
    0.08536308711      0.9999999841
    0.08554604852      0.9999999831
    0.08572900993      0.9999999822
    0.08591197135      0.9999999811
    0.08609493276        0.99999998
    0.08627551805      0.9999999789
    0.08645610333      0.9999999776
    0.08663668862      0.9999999763
    0.08681727391       0.999999975
    0.08699541886      0.9999999736
    0.08717356381       0.999999972
    0.08735170875      0.9999999704
    0.08752737947      0.9999999688
    0.08770305018       0.999999967
    0.08787872089      0.9999999652
     0.0880543916      0.9999999632
    0.08822751636      0.9999999612
    0.08840064112       0.999999959
    0.08857376588      0.9999999567
    0.08874430669      0.9999999544
    0.08891484749      0.9999999519
     0.0890853883      0.9999999492
    0.08925592911      0.9999999465
    0.08942380522      0.9999999436
    0.08959168133      0.9999999405
    0.08975955743      0.9999999373
    0.08992743354      0.9999999339
    0.09009255758      0.9999999304
    0.09025768162      0.9999999266
    0.09042280566      0.9999999227
     0.0905879297      0.9999999186
    0.09075020678      0.9999999143
    0.09091248385      0.9999999099
    0.09107476092      0.9999999051
      0.091237038      0.9999999002
    0.09139636458       0.999999895
    0.09155569116      0.9999998896
    0.09171501774      0.9999998839
    0.09187434433       0.999999878
    0.09203367091      0.9999998717
    0.09219299749      0.9999998651
    0.09234913754      0.9999998583
    0.09250527759      0.9999998512
    0.09266141764      0.9999998438
    0.09281755769      0.9999998359
    0.09297369774      0.9999998277
    0.09312983779      0.9999998191
    0.09328250806      0.9999998102
    0.09343517833       0.999999801
     0.0935878486      0.9999997912
    0.09374051888       0.999999781
    0.09389318915      0.9999997703
    0.09404585942       0.999999759
    0.09419852969      0.9999997472
    0.09434728534      0.9999997351
    0.09449604099      0.9999997225
    0.09464479664      0.9999997093
    0.09479355229      0.9999996956
    0.09494230793      0.9999996811
    0.09509106358      0.9999996661
    0.09523544407      0.9999996508
    0.09537982455      0.9999996349
    0.09552420503      0.9999996182
    0.09566858552      0.9999996009
      0.095812966      0.9999995827
    0.09595734648      0.9999995638
    0.09610172696      0.9999995441
    0.09624610745      0.9999995235
    0.09639048793       0.999999502
    0.09653486841      0.9999994796
    0.09667347368      0.9999994572
    0.09681207894      0.9999994339
     0.0969506842      0.9999994097
    0.09708928947      0.9999993845
    0.09722789473      0.9999993584
    0.09736649999      0.9999993311
    0.09750510526      0.9999993028
    0.09764371052      0.9999992733
    0.09778231578      0.9999992426
    0.09792092105      0.9999992106
    0.09805952631      0.9999991773
    0.09819813157      0.9999991425
    0.09833673684      0.9999991062
     0.0984753421      0.9999990684
    0.09861394736      0.9999990289
    0.09875255263      0.9999989878
    0.09889115789      0.9999989449
    0.09902976316      0.9999989002
    0.09916836842      0.9999988536
    0.09930697368      0.9999988051
    0.09944557895      0.9999987545
    0.09958418421      0.9999987018
    0.09972278947      0.9999986469
    0.09986139474      0.9999985896
              0.1      0.9999985299
     0.1001319261      0.9999984708
     0.1002635042      0.9999984094
      0.100394735      0.9999983456
     0.1005256196      0.9999982795
     0.1006561589      0.9999982109
     0.1007863537      0.9999981397
      0.100916205      0.9999980659
     0.1010457137      0.9999979893
     0.1011748807      0.9999979099
     0.1013040477      0.9999978273
     0.1014328729      0.9999977416
     0.1015613574      0.9999976528
      0.101689502      0.9999975607
     0.1018173075      0.9999974652
      0.101944775      0.9999973663
     0.1020719052      0.9999972637
     0.1021986991      0.9999971573
     0.1023251576      0.9999970471
     0.1024512815      0.9999969329
     0.1025770717      0.9999968145
     0.1027025292      0.9999966918
     0.1028276548      0.9999965645
     0.1029524494      0.9999964326
     0.1030769138      0.9999962959
     0.1032010489      0.9999961541
     0.1033248557      0.9999960072
     0.1034480091      0.9999958552
     0.1035708376      0.9999956977
      0.103693342      0.9999955346
     0.1038155231      0.9999953655
     0.1039373819      0.9999951904
     0.1040589191       0.999995009
     0.1041801357      0.9999948213
     0.1043010325      0.9999946269
     0.1044216102      0.9999944257
      0.104542188      0.9999942169
     0.1046624467      0.9999940009
     0.1047823873      0.9999937774
     0.1049020106      0.9999935461
     0.1050213175      0.9999933069
     0.1051403087      0.9999930595
     0.1052589852      0.9999928036
     0.1053773476       0.999992539
      0.105495397      0.9999922654
      0.105613134      0.9999919826
     0.1057305596      0.9999916903
     0.1058476745      0.9999913883
     0.1059644796      0.9999910762
     0.1060809757      0.9999907537
     0.1061971636      0.9999904207
     0.1063133515      0.9999900759
     0.1064292312      0.9999897198
     0.1065448035      0.9999893523
     0.1066600693      0.9999889729
     0.1067750293      0.9999885814
     0.1068896844      0.9999881776
     0.1070040354       0.999987761
      0.107118083      0.9999873313
     0.1072318282      0.9999868883
     0.1073452716      0.9999864315
     0.1074584141      0.9999859606
     0.1075715566      0.9999854738
     0.1076843982       0.999984972
     0.1077969397      0.9999844546
     0.1079091819      0.9999839212
     0.1080214241      0.9999833698
      0.108133367      0.9999828013
     0.1082450113      0.9999822152
      0.108356358       0.999981611
     0.1084674077      0.9999809882
     0.1085784574      0.9999803445
     0.1086892102       0.999979681
     0.1087996668      0.9999789974
     0.1089098281      0.9999782931
     0.1090196949      0.9999775676
     0.1091292679      0.9999768205
     0.1092388409      0.9999760491
     0.1093481202       0.999975255
     0.1094571064      0.9999744376
     0.1095660927       0.999973594
      0.109674786      0.9999727259
     0.1097831871      0.9999718325
     0.1098915882      0.9999709107
     0.1099996972      0.9999699621
     0.1101075147      0.9999689862
     0.1102150416       0.999967982
     0.1103222787       0.999966949
     0.1104292267      0.9999658851
     0.1105358865      0.9999647918
     0.1106425463      0.9999636648
     0.1107489178      0.9999625063
     0.1108550018       0.999961314
     0.1109607991      0.9999600884
     0.1110665964      0.9999588274
     0.1111721069      0.9999575329
     0.1112776175      0.9999562003
     0.1113828414      0.9999548325
     0.1114880652       0.999953425
     0.1115930024      0.9999519807
     0.1116976536      0.9999504989
     0.1118023048      0.9999489748
     0.1119066701      0.9999474114
     0.1120110354      0.9999458035
     0.1121151148      0.9999441542
     0.1122191941       0.999942458
     0.1123229875      0.9999407184
     0.1124264958      0.9999389342
     0.1125300041      0.9999370967
     0.1126332272      0.9999352143
     0.1127364504      0.9999332763
     0.1128393883      0.9999312885
      0.112942042      0.9999292501
     0.1130446956      0.9999271578
     0.1131470648      0.9999250105
     0.1132491505      0.9999228086
     0.1133512362       0.999920545
     0.1134530384      0.9999182286
     0.1135548405      0.9999158451
      0.113656359      0.9999134014
     0.1137578776      0.9999108938
     0.1138591126      0.9999083255
     0.1139603475      0.9999056824
     0.1140612989       0.999902954
     0.1141619676      0.9999001721
     0.1142626362      0.9998973241
     0.1143630221      0.9998944107
     0.1144631259      0.9998914241
     0.1145629486      0.9998883711
     0.1146627713       0.999885234
     0.1147623128      0.9998820284
     0.1148615739      0.9998787506
      0.114960835      0.9998753835
     0.1150598156      0.9998719444
     0.1151585167      0.9998684237
     0.1152572178      0.9998648189
     0.1153556393      0.9998611296
     0.1154540608      0.9998573438
     0.1155522026      0.9998534831
     0.1156500657      0.9998495343
     0.1157479288      0.9998454936
      0.115845513      0.9998413568
     0.1159428193      0.9998371279
     0.1160398483      0.9998328071
     0.1161366008      0.9998283972
     0.1162333534      0.9998238813
     0.1163298295      0.9998192654
       0.11642603      0.9998145501
     0.1165222305      0.9998096807
     0.1166181553      0.9998047396
     0.1167140802      0.9997996901
     0.1168097294      0.9997945334
     0.1169053786      0.9997892528
     0.1170007521      0.9997838616
     0.1170961257      0.9997783468
     0.1171912236      0.9997727146
     0.1172863215      0.9997669536
     0.1173811437      0.9997610715
     0.1174756911      0.9997550742
     0.1175702386      0.9997489404
     0.1176645111      0.9997426804
     0.1177585096      0.9997362966
     0.1178525081       0.999729775
     0.1179462326      0.9997231302
     0.1180399571      0.9997163403
     0.1181334075      0.9997094233
     0.1182265847      0.9997023782
     0.1183197618      0.9996951825
      0.118412939      0.9996878338
     0.1185058421      0.9996803515
     0.1185987452      0.9996727116
     0.1186913743      0.9996649343
     0.1187840034      0.9996569943
     0.1188766325      0.9996488886
     0.1189689867      0.9996406387
     0.1190613409      0.9996322106
     0.1191534202      0.9996236311
     0.1192454996      0.9996148808
      0.119337304       0.999605971
     0.1194291085      0.9995968747
     0.1195206381      0.9995876244
     0.1196121677      0.9995781757
     0.1197034225      0.9995685562
     0.1197946772      0.9995587336
     0.1198856571      0.9995487334
      0.119976637      0.9995385292
      0.120067342      0.9995281334
     0.1201580471      0.9995175141
     0.1202484772      0.9995067012
     0.1203389074      0.9994955669
     0.1204290627      0.9994842024
      0.120519218      0.9994726863
     0.1206090984      0.9994608915
     0.1206989788      0.9994489485
     0.1207885844      0.9994368331
       0.12087819      0.9994244876
     0.1209675207       0.999411932
     0.1210568514      0.9993991318
     0.1211459072       0.999386126
     0.1212349631      0.9993728729
     0.1213237441      0.9993594219
      0.121412525      0.9993457096
     0.1215010312      0.9993317798
     0.1215895373      0.9993175864
     0.1216777685      0.9993031688
     0.1217659998      0.9992884757
     0.1218539562      0.9992735486
     0.1219419125      0.9992583354
     0.1220295941      0.9992428783
     0.1221172756      0.9992271242
     0.1222046822       0.999210968
     0.1222920889      0.9991946076
     0.1223792207      0.9991780258
     0.1224663525      0.9991611454
     0.1225534843      0.9991439601
     0.1226403404      0.9991263674
     0.1227271964      0.9991085795
     0.1228140525      0.9990905122
     0.1229006319      0.9990721936
     0.1229872114      0.9990535536
     0.1230737908      0.9990345838
     0.1231603703       0.999015277
     0.1232469497      0.9989956262
     0.1233332499      0.9989756885
     0.1234195501      0.9989553932
     0.1235058502      0.9989347314
     0.1235921504      0.9989136942
     0.1236781694      0.9988923428
     0.1237641885      0.9988706004
     0.1238502075      0.9988484581
     0.1239362266      0.9988259081
     0.1240219627      0.9988030194
     0.1241076988      0.9987797125
     0.1241934349      0.9987559827
      0.124279171      0.9987318266
     0.1243646222      0.9987073236
     0.1244500735      0.9986823928
     0.1245355248      0.9986570329
      0.124620976      0.9986312425
     0.1247061405      0.9986051088
      0.124791305      0.9985785431
     0.1248764696      0.9985515417
     0.1249613463      0.9985241928
     0.1250462231      0.9984963998
     0.1251308122      0.9984682508
     0.1252154013      0.9984396419
     0.1252999904      0.9984105624
     0.1253842907      0.9983811023
     0.1254685911      0.9983511508
     0.1255526028      0.9983208001
     0.1256366145      0.9982899389
     0.1257206261      0.9982585588
     0.1258046378      0.9982266506
     0.1258883588       0.998194319
     0.1259720798      0.9981614472
     0.1260558007      0.9981280307
     0.1261395217      0.9980940645
       0.12622295      0.9980596645
     0.1263063782      0.9980247077
     0.1263898065      0.9979891875
     0.1264732347      0.9979530969
     0.1265563681      0.9979165584
     0.1266395016      0.9978794375
     0.1267223402      0.9978418619
     0.1268051789      0.9978036943
     0.1268880175      0.9977649265
     0.1269705603      0.9977252945
     0.1270531031      0.9976853161
     0.1271353501      0.9976449525
      0.127217597      0.9976035799
     0.1272995481      0.9975620144
     0.1273814992      0.9975194808
     0.1274634503      0.9974761947
     0.1275451044      0.9974323825
     0.1276267586      0.9973879054
     0.1277084128      0.9973427629
     0.1277900669      0.9972969483
      0.127871422      0.9972506234
     0.1279527771      0.9972036105
     0.1280341321      0.9971558972
      0.128115187      0.9971076505
     0.1281962419      0.9970586821
     0.1282772967      0.9970089783
     0.1283580503      0.9969587153
     0.1284388038      0.9969077124
      0.128519256      0.9968561578
     0.1285997083      0.9968038536
     0.1286801605      0.9967507898
     0.1287603103      0.9966971601
       0.12884046      0.9966427695
     0.1289206098      0.9965876135
      0.129000456      0.9965318961
     0.1290803022      0.9964753969
     0.1291601483      0.9964181007
     0.1292396897      0.9963602141
     0.1293192312      0.9963015024
     0.1293987726      0.9962419469
     0.1294780081      0.9961817623
     0.1295572436      0.9961207002
     0.1296364791      0.9960587379
     0.1297157145      0.9959958794
       0.12979495      0.9959321222
      0.129873876       0.995867712
      0.129952802      0.9958023905
      0.130031728      0.9957361458
     0.1301106539      0.9956689653
     0.1301895799      0.9956008357
     0.1302685059      0.9955317426
     0.1303471174      0.9954619516
      0.130425729      0.9953911784
     0.1305043405      0.9953194036
      0.130582952      0.9952466095
     0.1306615635      0.9951727788
     0.1307398568      0.9950982001
     0.1308181501      0.9950225604
     0.1308964433      0.9949458441
     0.1309747366      0.9948680372
      0.131052709      0.9947894527
     0.1311306814      0.9947097632
     0.1312086538        0.99462896
     0.1312866262      0.9945470361
     0.1313645986      0.9944639859
     0.1314422461      0.9943801583
     0.1315198936      0.9942952056
     0.1315975411      0.9942090945
     0.1316751886      0.9941217887
     0.1317528361      0.9940332602
     0.1318304836      0.9939434825
     0.1319081311      0.9938524404
     0.1319854468      0.9937605904
     0.1320627625      0.9936675559
     0.1321400781      0.9935733288
     0.1322173938      0.9934778932
     0.1322947095      0.9933812294
      0.132371689      0.9932837437
     0.1324486685      0.9931849952
     0.1325256481      0.9930849603
     0.1326026276      0.9929836152
     0.1326796071      0.9928809366
      0.132756246      0.9927773657
     0.1328328849      0.9926724311
     0.1329095238       0.992566114
     0.1329861627      0.9924583975
      0.133062458      0.9923497585
     0.1331387532       0.992239703
     0.1332150484      0.9921282178
     0.1332913437      0.9920152898
     0.1333676389       0.991900906
     0.1334435858      0.9917855852
     0.1335195326      0.9916687943
     0.1335954795      0.9915505184
     0.1336714263      0.9914307413
     0.1337473732      0.9913094453
       0.13382332      0.9911866116
      0.133898912      0.9910628045
      0.133974504      0.9909374324
     0.1340500959      0.9908104732
     0.1341256879      0.9906819039
     0.1342012799       0.990551701
     0.1342768718       0.990419841
     0.1343521021      0.9902869434
     0.1344273324      0.9901523611
     0.1345025626      0.9900160737
     0.1345777929      0.9898780608