# Probe 0 (6 0.005 0.305)
# Probe 1 (6.3 0.005 0.305)
# Probe 2 (6.8 0.005 0.305)
# Probe 3 (8.3 0.005 0.305)
#           Probe                 0                 1                 2                 3
#            Time
    1.1999904e-06            101325            101325            101325            101325
  2.639965056e-06            101325            101325            101325            101325
  4.367944597e-06            101325            101325            101325            101325
  6.441505713e-06            101325            101325            101325            101325
   8.92973777e-06            101325            101325            101325            101325
  1.191552707e-05            101325            101325            101325            101325
  1.549838863e-05            101325            101325            101325            101325
  1.979776087e-05            101325            101325            101325            101325
  2.495674128e-05            101325            101325            101325            101325
  3.114713435e-05            101325            101325            101325            101325
  3.857523794e-05            101325            101325            101325            101325
  4.748896225e-05            101325            101325            101325            101325
  5.818543142e-05            101325            101325            101325            101325
  7.102064463e-05            101325            101325            101325            101325
  8.642131685e-05            101325            101325            101325            101325
  0.0001049009832            101325            101325            101325            101325
  0.0001270765827            101325            101325            101325            101325
  0.0001536896689            101325            101325            101325            101325
  0.0001856219625            101325            101325            101325            101325
  0.0002239407148            101325            101325            101325            101325
  0.0002699019884            101325            101325            101325            101325
  0.0003250351347            101325            101325            101325            101325
  0.0003911802278            101325            101325            101325            101325
  0.0004705543394            101325            101325            101325            101325
  0.0005658032734            101325            101325            101325            101325
  0.0006799700095            101325            101325            101325            101325
  0.0008169700928            101325            101325            101325            101325
  0.0009814618316            101325            101325            101325            101325
   0.001179117227            101325            101325            101325            101325
   0.001416111804            101325            101325            101325            101325
   0.001666544217            101325            101325            101325            101325
   0.001916976631       101324.9999            101325            101325            101325
   0.002167409044       101324.9996            101325            101325            101325
   0.002417841458        101324.999       101324.9999            101325            101325
   0.002668273871       101324.9976       101324.9998            101325            101325
   0.002918706284        101324.995       101324.9995            101325            101325
   0.003169138698       101324.9905       101324.9989            101325            101325
   0.003419571111        101324.984       101324.9977            101325            101325
   0.003670003524       101324.9753       101324.9956       101324.9999            101325
   0.003920435938       101324.9652       101324.9922       101324.9998            101325
   0.004170868351       101324.9548       101324.9872       101324.9995            101325
   0.004421300765       101324.9457       101324.9804       101324.9989            101325
   0.004671733178       101324.9392       101324.9721        101324.998            101325
   0.004922165591       101324.9361        101324.963       101324.9965            101325
   0.005172598005       101324.9362       101324.9541       101324.9941            101325
   0.005423030418       101324.9387       101324.9465       101324.9906            101325
   0.005673462831       101324.9432       101324.9413       101324.9859            101325
   0.005923895245       101324.9501       101324.9392         101324.98            101325
   0.006174327658       101324.9617       101324.9405       101324.9731            101325
   0.006424760072       101324.9829       101324.9453       101324.9657            101325
   0.006675192485       101325.0211       101324.9541       101324.9585            101325
   0.006925624898       101325.0852       101324.9686       101324.9525            101325
   0.007176057312       101325.1874       101324.9925       101324.9486       101324.9999
   0.007426489725       101325.3479       101325.0319       101324.9477       101324.9998
   0.007676922139       101325.5971       101325.0949       101324.9509       101324.9997
   0.007927354552        101325.977       101325.1933       101324.9593       101324.9995
   0.008177786965       101326.5428       101325.3452       101324.9745       101324.9992
   0.008428219379       101327.3606       101325.5762       101324.9995       101324.9988
   0.008678651792        101328.504       101325.9218       101325.0385       101324.9981
   0.008929084205       101330.0469       101326.4278       101325.0978        101324.997
   0.009179516619       101332.0532       101327.1486       101325.1866       101324.9956
   0.009429949032       101334.5648       101328.1444       101325.3189       101324.9938
   0.009680381446       101337.5881       101329.4759       101325.5149       101324.9914
   0.009930813859       101341.0823       101331.1963       101325.8011       101324.9885
    0.01018124627        101344.952       101333.3434       101326.2113       101324.9852
    0.01043167869       101349.0304       101335.9309       101326.7848       101324.9815
     0.0106821111       101353.0604       101338.9354       101327.5651       101324.9779
    0.01093254351       101356.7205       101342.2836       101328.5967       101324.9748
    0.01118297593       101359.6598       101345.8337       101329.9214       101324.9728
    0.01143340834       101361.5133       101349.3808       101331.5734       101324.9731
    0.01168384075       101361.9421       101352.6646       101333.5706       101324.9769
    0.01193427317       101360.7055       101355.4034       101335.9042       101324.9859
    0.01218470558       101357.7494        101357.285       101338.5295       101325.0023
    0.01243513799       101353.2609       101358.0067       101341.3527       101325.0287
    0.01268557041       101347.6726       101357.3452       101344.2356       101325.0677
    0.01293600282       101341.6205       101355.2169       101347.0042       101325.1233
    0.01318643523       101335.8575       101351.7185       101349.4496       101325.2018
    0.01343686765       101331.0951        101347.142       101351.3337       101325.3114
    0.01368730006       101327.8593       101341.9559       101352.4218       101325.4636
    0.01393773247       101326.4268       101336.7495       101352.5191       101325.6725
    0.01418816489       101326.8292       101332.1505       101351.5094       101325.9551
     0.0144385973       101328.9363       101328.7273       101349.3892       101326.3303
    0.01468902971       101332.5697       101326.8908       101346.2901       101326.8186
    0.01493946213       101337.5605       101326.8373       101342.4816       101327.4405
    0.01518989454       101343.7336       101328.5657       101338.3547        101328.215
    0.01544032695       101350.8536       101331.9294       101334.3862       101329.1564
    0.01569075937       101358.5662       101336.6804        101331.079       101330.2741
    0.01594119178       101366.3485       101342.4959       101328.8812       101331.5642
    0.01619162419       101373.5319       101348.9942       101328.1082       101333.0135
    0.01644205661       101379.1887       101355.7537       101328.8883       101334.5881
    0.01669248902       101382.3914        101362.278       101331.1619       101336.2384
    0.01694292143       101382.4548        101367.932        101334.718       101337.8954
    0.01719335385       101379.1492       101372.0383       101339.2224       101339.4694
    0.01744378626       101372.8653       101373.9256       101344.2363       101340.8561
    0.01769421867       101364.6014       101373.0786       101349.2883       101341.9405
    0.01794465109       101355.7356       101369.3735        101353.845       101342.6165
     0.0181950835       101347.6819       101363.2198       101357.3943       101342.7946
    0.01844551591       101341.5979       101355.5264       101359.4906       101342.4243
    0.01869594833       101338.2628       101347.5289       101359.8179       101341.5041
    0.01894638074       101338.1334       101340.5618       101358.2645       101340.0886
    0.01919681315       101341.4507       101335.8395       101354.9852       101338.2792
    0.01944724557       101348.3374       101334.2655       101350.4229       101336.2261
    0.01969767798       101358.7493       101336.3446       101345.2826       101334.1308
    0.01994811039       101372.2311       101342.0963        101340.459       101332.2151
    0.02019854281       101387.6158       101351.1002       101336.9138       101330.6858
    0.02044897522       101402.9002       101362.5848       101335.5292       101329.7125
    0.02069940763       101415.4525       101375.5067       101336.9105       101329.3835
    0.02094984005       101422.5215       101388.5872       101341.2115       101329.7148
    0.02120027246       101422.0121       101400.3196       101348.1384       101330.6365
    0.02145070487       101412.9809       101409.0745       101356.9929        101332.016
    0.02170113729       101396.5377       101413.0534       101366.7712       101333.6743
     0.0219515697       101375.7315        101410.876       101376.3348       101335.4108
    0.02220200211       101354.7922       101401.9925        101384.604       101337.0336
    0.02245243453       101337.9814       101387.0566       101390.7128       101338.3883
    0.02270286694        101328.398       101368.1601       101393.8431       101339.3795
    0.02295329935       101327.1657       101348.5861       101393.3736       101339.9882
    0.02320373177       101333.2838       101332.0185       101388.9367       101340.2773
    0.02345416418       101344.1727       101321.5049       101380.5719       101340.3707
    0.02370459659        101356.597       101318.6657       101368.9051       101340.4632
    0.02395502901        101367.646       101323.3992       101355.2238       101340.7892
    0.02420546142       101375.4942       101333.9888       101341.3494       101341.5461
    0.02445589384       101379.6316       101347.5612       101329.3451        101342.833
    0.02470632625       101380.6454       101360.9588       101321.1607       101344.6522
    0.02495675866       101379.6833       101371.6441       101318.1831       101346.9106
    0.02520719108       101377.9294       101378.2875       101320.7816       101349.4257
    0.02545762349       101376.2646       101380.8186       101328.2171        101351.942
     0.0257080559       101375.1285       101380.1433       101338.8379       101354.1548
    0.02595848832       101374.7452       101377.6362       101350.5153       101355.7254
    0.02620892073       101375.2852       101374.6274       101361.1938       101356.4163
    0.02645935314       101376.8906       101372.0822       101369.3035       101356.1315
    0.02670978556       101379.7249       101370.5127       101374.1238        101354.922
    0.02696021797       101383.8712       101370.0694       101375.7027       101352.9115
    0.02721065038       101389.2118       101370.7266       101374.7687       101350.2648
     0.0274610828       101395.2629       101372.4364       101372.3178       101347.1901
    0.02771151521       101401.1649       101375.2163       101369.3006       101343.9299
    0.02796194762       101405.8521       101378.9985       101366.4624       101340.7482
    0.02821238004       101408.3501       101383.4824       101364.2924       101337.9419
    0.02846281245       101408.0921       101388.0747       101363.0633       101335.7414
    0.02871324486       101405.1185       101392.0008       101362.8948       101334.2669
    0.02896367728       101400.0649       101394.5445       101363.8347       101333.5799
    0.02921410969       101393.9392       101395.2418       101365.8561       101333.7259
     0.0294645421       101387.7853       101393.9757       101368.8063       101334.7304
    0.02971497452       101382.4179       101390.9903       101372.3439       101336.5853
    0.02996540693       101378.2698       101386.8172       101375.9442        101339.223
    0.03021583934       101375.3862       101382.1313       101379.0049       101342.5292
    0.03046627176       101373.5539       101377.5723       101380.9759       101346.1938
    0.03071670417       101372.4866       101373.6017       101381.4567       101349.8313
    0.03096713658       101371.9681       101370.4456       101380.2842       101353.0345
      0.031217569       101371.9154       101368.1341       101377.5808       101355.4325
    0.03146800141       101372.3705       101366.5982       101373.7318       101356.7718
    0.03171843382       101373.4465       101365.7639       101369.2959       101356.9316
    0.03196886624       101375.2556       101365.6189       101364.8829       101355.9389
    0.03221929865       101377.8403        101366.198       101361.0405       101353.9856
    0.03246973106       101381.1234       101367.5412       101358.1734       101351.4221
    0.03272016348        101384.889       101369.6386       101356.5429       101348.7026
    0.03297059589        101388.798       101372.3841       101356.2131       101346.3215
     0.0332210283       101392.4355       101375.5557       101357.0707       101344.7026
    0.03347146072       101395.3725       101378.8317       101358.8707       101344.1382
    0.03372189313       101397.3019       101381.8391       101361.2875        101344.754
    0.03397232554       101398.0412       101384.2181        101363.963       101346.4923
    0.03422275796        101397.578       101385.6891       101366.5497       101349.1507
    0.03447319037          101396.1       101386.1401       101368.7423       101352.3206
    0.03472362278        101393.988       101385.5886       101370.3349       101355.4993
     0.0349740552       101391.7675       101384.1632       101371.2064       101358.1792
    0.03522448761       101390.0235        101382.138       101371.3206       101359.9331
    0.03547492002       101389.2826       101379.9636        101370.719       101360.5049
    0.03572535244       101389.8864       101378.2114       101369.5326       101359.8526
    0.03597578485       101391.9285       101377.4353       101368.0034       101358.1472
    0.03622621726       101395.2463       101378.0386       101366.4782       101355.7298
    0.03647664968       101399.4346       101380.1912       101365.3578       101353.0063
    0.03672708209       101403.9317       101383.8983       101365.0092       101350.3648
     0.0369775145       101408.1689       101388.8585       101365.6923         101348.12
    0.03722794692       101411.6866       101394.4979       101367.5565       101346.4717
    0.03747837933        101414.192        101400.124       101370.6447       101345.4796
    0.03772881174        101415.575       101405.0686       101374.7931       101345.0675
    0.03797924416       101415.8854       101408.7888       101379.6498       101345.0617
    0.03822967657       101415.2832       101410.9345       101384.7286       101345.2495
    0.03848010898       101413.9831        101411.386       101389.4819       101345.4429
     0.0387305414       101412.2011       101410.2529       101393.3892       101345.5291
    0.03898097381       101410.1724       101407.8156       101396.0492       101345.4922
    0.03923140622       101408.0628       101404.5168       101397.2393       101345.4091
    0.03948183864       101405.9461       101400.8028       101396.9477       101345.4263
    0.03973227105       101403.8119       101397.0572       101395.3577        101345.726
    0.03998270346       101401.5936       101393.5698       101392.7735       101346.4741
    0.04023313588        101399.208       101390.5152       101389.5557       101347.7857
    0.04048356829       101396.5936       101387.9432       101386.0686       101349.6652
     0.0407340007       101393.7301        101385.791       101382.6386       101352.0726
    0.04098443312       101390.6457       101383.9202       101379.5224        101354.895
    0.04123486553        101387.426       101382.1676       101376.8844       101357.9295
    0.04148529795        101384.235       101380.3957       101374.7862       101360.9171
    0.04173573036       101381.3374       101378.5327       101373.1926       101363.5971
    0.04198616277       101379.0985       101376.5976       101371.9922       101365.7513
    0.04223659519       101377.9794       101374.7159       101371.0282       101367.2344
     0.0424870276       101378.4172       101373.1342       101370.1333       101367.9684
    0.04273746001         101380.72       101372.2066        101369.167       101367.9824
    0.04298789243       101385.0129       101372.2919       101368.0512        101367.365
    0.04323832484       101391.2048       101373.6987        101366.799       101366.2693
    0.04348875725       101398.9581       101376.6198       101365.5256       101364.8649
    0.04373918967       101407.6654        101381.054        101364.438       101363.3066
    0.04398962208        101416.465       101386.7604       101363.8055       101361.7248
    0.04424005449       101424.3331       101393.2766       101363.9111       101360.2324
    0.04449048691       101430.2502       101399.9941        101364.988       101358.9052
    0.04474091932       101433.5249       101406.2579       101367.1555       101357.7672
    0.04499135173       101433.9158       101411.5131       101370.3765       101356.8287
    0.04524178415         101431.69       101415.2753       101374.4536        101356.053
    0.04549221656       101427.5713       101417.2075       101379.0615       101355.3744
    0.04574264897       101422.5352       101417.2003       101383.8116       101354.7254
    0.04599308139       101417.5463       101415.4146       101388.3265       101354.0563
     0.0462435138       101413.3664       101412.2772       101392.2982       101353.3417
    0.04649394621       101410.5166        101408.423       101395.5072        101352.563
    0.04674437863       101409.3674         101404.59       101397.8133       101351.7268
    0.04699481104       101410.2563       101401.5023       101399.1352       101350.8657
    0.04724524345       101413.5288       101399.7785       101399.4432       101350.0303
    0.04749567587       101419.3755         101399.88       101398.7791       101349.2832
    0.04774610828       101427.5728       101402.0769       101397.2945       101348.6987
    0.04799654069       101437.2488       101406.4268       101395.2834       101348.3609
    0.04824697311       101446.8126       101412.6851         101393.18        101348.356
    0.04849740552       101454.1635       101420.2484       101391.5061       101348.7615
    0.04874783793       101457.1933       101428.1376       101390.7724        101349.633
    0.04899827035       101454.4588       101435.0644       101391.3592       101350.9924
    0.04924870276       101445.7703       101439.6178       101393.4333       101352.7957
    0.04949913517       101432.5167       101440.5564       101396.8654       101354.9651
    0.04974956759        101417.347       101437.1395       101401.2061       101357.3967
             0.05       101403.4174       101429.4136       101405.7655       101359.9625
          0.05025       101393.4537       101418.3283       101409.7199       101362.5161
           0.0505       101388.8956       101405.4734        101412.254       101364.9202
          0.05075       101389.6372       101392.8357       101412.7128       101367.0446
            0.051       101394.2475       101382.4041       101410.6576       101368.7852
          0.05125       101400.6491       101375.7597       101405.9812       101370.0712
           0.0515       101406.8976       101373.7423       101398.9921       101370.8718
          0.05175       101411.7341       101376.2899       101390.4314       101371.1959
            0.052       101414.8827       101382.4872       101381.4106       101371.1066
          0.05225       101416.7624       101390.8114       101373.2604       101370.7059
           0.0525       101418.0609       101399.4732       101367.3042        101370.138
          0.05275       101419.3812       101406.9243       101364.5948       101369.5755
            0.053        101421.029       101412.0355       101365.6608       101369.1955
          0.05325       101422.9735       101414.3379       101370.3176        101369.146
           0.0535       101425.0198       101414.1051       101377.6515       101369.5102
          0.05375       101426.9587       101412.1986       101386.1506        101370.276
            0.054       101428.6898       101409.7634       101394.0048       101371.3168
          0.05425       101430.2784        101407.881       101399.5556       101372.4115
           0.0545       101431.9303       101407.3349       101401.7462       101373.2735
          0.05475       101433.9196       101408.4715       101400.4484       101373.5874
            0.055       101436.5088       101411.2373       101396.4843       101373.0919
          0.05525       101439.8303       101415.3464       101391.3878       101371.6361
           0.0555       101443.7267       101420.4247       101386.9583       101369.2158
          0.05575       101447.7595       101426.0588       101384.7473       101365.9906
            0.056         101451.42       101431.8267       101385.6521       101362.2725
          0.05625       101454.3317       101437.0916        101389.725       101358.4835
           0.0565       101456.2983       101441.2304       101396.2202       101355.1396
          0.05675       101457.1779       101443.8851       101403.9252       101352.7541
            0.057       101456.7009        101444.999       101411.5075       101351.6976
          0.05725        101454.384        101444.653        101417.793        101352.119
           0.0575       101449.6291       101442.8542       101422.0865       101353.9353
          0.05775       101442.0306       101439.4474       101424.2773       101356.8091
            0.058       101431.7129       101434.1684        101424.702       101360.2499
          0.05825       101419.5731       101426.8292        101423.851       101363.6676
           0.0585        101407.269       101417.5648       101422.1062       101366.4802
          0.05875       101396.9319       101407.0417       101419.5924       101368.2315
            0.059       101390.6541        101396.503       101416.1638       101368.6926
          0.05925       101389.8644       101387.5768       101411.5221       101367.9656
           0.0595       101394.8178       101381.8785       101405.4315       101366.4455
          0.05975        101404.551       101380.5296       101397.9534       101364.7213
             0.06       101417.0767       101383.7788       101389.6064       101363.4446
          0.06025       101430.1133       101390.8652       101381.3684       101363.1937
           0.0605       101441.8935       101400.3874        101374.489       101364.3539
          0.06075       101451.6354       101410.6434       101370.1601       101367.0121
            0.061       101459.4777       101420.2074       101369.1546       101370.9819
          0.06125       101465.9883       101428.4276       101371.5729       101375.7664
           0.0615       101471.6637       101435.4498       101376.8169       101380.7073
          0.06175       101476.6142       101441.8742       101383.8223       101385.0528
            0.062       101480.5206       101448.2424       101391.4261       101388.1632
          0.06225       101482.9009       101454.6446       101398.7628       101389.5911
           0.0625       101483.4166       101460.7819       101405.5071       101389.1317
          0.06275       101482.0527       101465.8163       101411.8434       101386.8237
            0.063       101479.0853       101468.7055       101418.2036       101382.9366
          0.06325       101474.8686       101468.7463       101424.9522       101377.8673
           0.0635       101469.6411       101465.9079       101432.0575       101372.1107
          0.06375        101463.501       101460.7695       101438.8964       101366.2335
            0.064       101456.5729       101454.2314        101444.439       101360.7711
          0.06425       101449.2516        101447.174       101447.6431       101356.2209
           0.0645       101442.3199       101440.2353       101447.8322       101352.9594
          0.06475       101436.8002       101433.7911       101444.9286       101351.2184
            0.065       101433.5624       101428.0781        101439.456       101351.0563
          0.06525       101432.9191        101423.343       101432.3471       101352.3728
           0.0655       101434.4863       101419.9072       101424.6568       101354.9721
          0.06575       101437.4376       101418.1061       101417.2947       101358.5804
            0.066       101441.0048       101418.1524       101410.8668       101362.8712
          0.06625       101444.8957       101420.0223       101405.6694       101367.5739
           0.0665       101449.3335       101423.4421        101401.804       101372.4798
          0.06675       101454.7809       101427.9847       101399.3247       101377.4341
            0.067       101461.3572       101433.2081       101398.3251       101382.3146
          0.06725       101468.5582       101438.7516       101398.9195       101387.0001
    0.06749810606        101475.343       101444.3007       101401.1189       101391.3001
    0.06774433253       101480.7597       101449.6122       101404.7322       101395.0021
    0.06798869365       101484.2989       101454.3804       101409.3407       101397.8399
    0.06823305476       101486.1119       101458.2977       101414.3911       101399.5425
    0.06847555053       101486.8391       101461.1117         101419.21       101399.8526
    0.06871437212       101487.2991       101462.8626       101423.2498       101398.6822
    0.06895138445       101488.0856        101463.901       101426.2699       101396.0988
    0.06918660123       101489.3841       101464.7094       101428.2663       101392.3305
    0.06942003607       101491.0835       101465.7283       101429.4796       101387.7386
    0.06965170247       101492.8322       101467.1687       101430.3079       101382.7593
    0.06988161381       101494.2487       101468.9261       101431.1957       101377.8829
     0.0701097834       101495.0017       101470.6306       101432.5251       101373.5451
    0.07033622444       101494.7364       101471.8092       101434.5261        101370.094
    0.07056095001       101492.9982       101472.0678       101437.2198        101367.743
    0.07078397312       101489.3008       101471.1601       101440.4006       101366.5815
    0.07100530665       101483.3741       101469.0619       101443.6646       101366.5817
    0.07122496342       101475.4592        101465.931       101446.4827        101367.624
    0.07144462019       101466.4661       101461.9528       101448.3162       101369.5477
    0.07166260019       101458.1636       101457.3481       101448.6939       101372.1249
    0.07187891622       101452.5831       101452.2867       101447.3933       101375.0903
    0.07209358098        101451.413       101447.0479       101444.4779       101378.1948
    0.07230824574       101455.3956       101442.1766       101440.2509       101381.2471
    0.07252125923       101463.8994       101438.6379       101435.2734       101384.0387
    0.07273427273        101475.385       101437.4844       101430.1154       101386.4343
    0.07294563496       101487.6036       101439.5891       101425.3866        101388.336
    0.07315535872       101498.5553       101445.2116       101421.5494       101389.7037
    0.07336508248       101507.1385       101453.9628       101418.9236       101390.6003
    0.07357316777       101513.0663       101464.7171       101417.7632       101391.1017
     0.0737796274       101516.8574       101476.1962        101418.183        101391.334
    0.07398608702       101519.2677       101487.0597       101420.2427       101391.4313
    0.07419092098       101520.7895       101495.9664       101423.9236       101391.5079
    0.07439414208       101521.5182       101502.1546       101429.1378       101391.6406
    0.07459736317       101521.1764       101505.4494       101435.8185       101391.8517
     0.0747989714       101519.3946       101506.0567       101443.5632       101392.1252
    0.07499897956       101516.0531       101504.4567       101451.7632       101392.4021
    0.07519898773       101511.4252       101501.1526       101459.7251        101392.589
    0.07539739583       101506.2813       101496.6775       101466.5981       101392.5795