# Region type :   patch explosionChamber
# Faces           : 37875
# Area            : 9.6770513364e+01
# Scale factor    : 1.0000000000e+00
# Time            	max(T)
1.19999040008e-06 	2.9315000008e+02
2.63996505619e-06 	2.9315000017e+02
4.36794459704e-06 	2.9315000028e+02
6.44150571252e-06 	2.9315000041e+02
8.92973776977e-06 	2.9315000056e+02
1.19155270705e-05 	2.9315000072e+02
1.54983886296e-05 	2.9315000088e+02
1.97977608653e-05 	2.9315000103e+02
2.49567412781e-05 	2.9315000110e+02
3.11471343486e-05 	2.9315000100e+02
3.8575237941e-05  	2.9315000057e+02
4.74889622518e-05 	2.9315000001e+02
5.81854314247e-05 	2.9315000000e+02
7.10206446266e-05 	2.9315000000e+02
8.64213168522e-05 	2.9315000000e+02
0.000104900983155 	2.9315000000e+02
0.000127076582718 	2.9315000000e+02
0.000153689668853 	2.9315000000e+02
0.000185621962467 	2.9315000000e+02
0.000223940714803 	2.9315000000e+02
0.000269901988382 	2.9315000000e+02
0.000325035134736 	2.9315000000e+02
0.000391180227766 	2.9315000000e+02
0.000470554339401 	2.9315000001e+02
0.000565803273364 	2.9315003453e+02
0.000679970009453 	2.9315016474e+02
0.00081697009276  	2.9315019225e+02
0.00098146183158  	2.9315013337e+02
0.00117911722742  	2.9315008240e+02
0.00141611180399  	2.9315029950e+02
0.00166654421737  	2.9315101099e+02
0.00191697663075  	2.9315262993e+02
0.00216740904413  	2.9315574077e+02
0.00241784145751  	2.9316099538e+02
0.00266827387089  	2.9316895409e+02
0.00291870628428  	2.9318017614e+02
0.00316913869766  	2.9319434762e+02
0.00341957111104  	2.9321053040e+02
0.00367000352442  	2.9322706968e+02
0.0039204359378   	2.9324267400e+02
0.00417086835118  	2.9325455011e+02
0.00442130076456  	2.9326306699e+02
0.00467173317795  	2.9326914755e+02
0.00492216559133  	2.9327275560e+02
0.00517259800471  	2.9327336647e+02
0.00542303041809  	2.9327293887e+02
0.00567346283147  	2.9327043307e+02
0.00592389524485  	2.9326725797e+02
0.00617432765824  	2.9326368228e+02
0.00642476007162  	2.9325945400e+02
0.006675192485    	2.9325484896e+02
0.00692562489838  	2.9325101818e+02
0.00717605731176  	2.9324949852e+02
0.00742648972514  	2.9326165856e+02
0.00767692213852  	2.9327371369e+02
0.00792735455191  	2.9327895148e+02
0.00817778696529  	2.9332029113e+02
0.00842821937867  	2.9330487459e+02
0.00867865179205  	2.9330433857e+02
0.00892908420543  	2.9332466428e+02
0.00917951661881  	2.9328299380e+02
0.0094299490322   	2.9329523035e+02
0.00968038144558  	2.9331886862e+02
0.00993081385896  	2.9333892338e+02
0.0101812462723   	2.9334861725e+02
0.0104316786857   	2.9334406190e+02
0.0106821110991   	2.9332556829e+02
0.0109325435125   	2.9330046183e+02
0.0111829759259   	2.9329039024e+02
0.0114334083392   	2.9330133011e+02
0.0116838407526   	2.9330830700e+02
0.011934273166    	2.9330935353e+02
0.0121847055794   	2.9330543331e+02
0.0124351379928   	2.9329848652e+02
0.0126855704062   	2.9331033447e+02
0.0129360028195   	2.9331235930e+02
0.0131864352329   	2.9331131582e+02
0.0134368676463   	2.9331790000e+02
0.0136873000597   	2.9331264999e+02
0.0139377324731   	2.9330571713e+02
0.0141881648864   	2.9330838833e+02
0.0144385972998   	2.9331745624e+02
0.0146890297132   	2.9332491432e+02
0.0149394621266   	2.9332585477e+02
0.01518989454     	2.9331926338e+02
0.0154403269534   	2.9331310697e+02
0.0156907593667   	2.9331744057e+02
0.0159411917801   	2.9331815035e+02
0.0161916241935   	2.9332566909e+02
0.0164420566069   	2.9333308821e+02
0.0166924890203   	2.9333883413e+02
0.0169429214336   	2.9334139537e+02
0.017193353847    	2.9334727090e+02
0.0174437862604   	2.9335412280e+02
0.0176942186738   	2.9336016229e+02
0.0179446510872   	2.9336565985e+02
0.0181950835005   	2.9337802536e+02
0.0184455159139   	2.9340005407e+02
0.0186959483273   	2.9341403057e+02
0.0189463807407   	2.9341686895e+02
0.0191968131541   	2.9341032136e+02
0.0194472455675   	2.9340310147e+02
0.0196976779808   	2.9340689056e+02
0.0199481103942   	2.9341693280e+02
0.0201985428076   	2.9342359652e+02
0.020448975221    	2.9343081109e+02
0.0206994076344   	2.9344262912e+02
0.0209498400477   	2.9345738973e+02
0.0212002724611   	2.9347299864e+02
0.0214507048745   	2.9348551247e+02
0.0217011372879   	2.9349464114e+02
0.0219515697013   	2.9350210004e+02
0.0222020021147   	2.9350918593e+02
0.022452434528    	2.9351577224e+02
0.0227028669414   	2.9352130278e+02
0.0229532993548   	2.9352586949e+02
0.0232037317682   	2.9353007209e+02
0.0234541641816   	2.9353437777e+02
0.0237045965949   	2.9353916528e+02
0.0239550290083   	2.9354533850e+02
0.0242054614217   	2.9355428298e+02
0.0244558938351   	2.9356684485e+02
0.0247063262485   	2.9358255337e+02
0.0249567586618   	2.9360002584e+02
0.0252071910752   	2.9361794171e+02
0.0254576234886   	2.9363548075e+02
0.025708055902    	2.9365207045e+02
0.0259584883154   	2.9366709776e+02
0.0262089207288   	2.9367995509e+02
0.0264593531421   	2.9369082104e+02
0.0267097855555   	2.9369918891e+02
0.0269602179689   	2.9370492354e+02
0.0272106503823   	2.9370865727e+02
0.0274610827957   	2.9371139361e+02
0.027711515209    	2.9371483856e+02
0.0279619476224   	2.9372109081e+02
0.0282123800358   	2.9372996343e+02
0.0284628124492   	2.9373919855e+02
0.0287132448626   	2.9374940171e+02
0.028963677276    	2.9376186408e+02
0.0292141096893   	2.9377503554e+02
0.0294645421027   	2.9378771865e+02
0.0297149745161   	2.9380120487e+02
0.0299654069295   	2.9381621783e+02
0.0302158393429   	2.9383112291e+02
0.0304662717562   	2.9384433284e+02
0.0307167041696   	2.9385631411e+02
0.030967136583    	2.9386787487e+02
0.0312175689964   	2.9387819632e+02
0.0314680014098   	2.9388645720e+02
0.0317184338231   	2.9389396733e+02
0.0319688662365   	2.9390277494e+02
0.0322192986499   	2.9391259511e+02
0.0324697310633   	2.9392125010e+02
0.0327201634767   	2.9392803489e+02
0.0329705958901   	2.9393466730e+02
0.0332210283034   	2.9394272267e+02
0.0334714607168   	2.9395176336e+02
0.0337218931302   	2.9396075042e+02
0.0339723255436   	2.9397010747e+02
0.034222757957    	2.9398122669e+02
0.0344731903703   	2.9399443962e+02
0.0347236227837   	2.9400839875e+02
0.0349740551971   	2.9402298038e+02
0.0352244876105   	2.9403656547e+02
0.0354749200239   	2.9404584211e+02
0.0357253524373   	2.9405135323e+02
0.0359757848506   	2.9405603614e+02
0.036226217264    	2.9406054714e+02
0.0364766496774   	2.9406592748e+02
0.0367270820908   	2.9407656811e+02
0.0369775145042   	2.9409163404e+02
0.0372279469175   	2.9410092850e+02
0.0374783793309   	2.9410013859e+02
0.0377288117443   	2.9409881150e+02
0.0379792441577   	2.9410373763e+02
0.0382296765711   	2.9411190277e+02
0.0384801089845   	2.9411901723e+02
0.0387305413978   	2.9412533241e+02
0.0389809738112   	2.9413207214e+02
0.0392314062246   	2.9413829949e+02
0.039481838638    	2.9414340509e+02
0.0397322710514   	2.9414917351e+02
0.0399827034647   	2.9415765615e+02
0.0402331358781   	2.9416751335e+02
0.0404835682915   	2.9417562486e+02
0.0407340007049   	2.9418185921e+02
0.0409844331183   	2.9418869910e+02
0.0412348655316   	2.9419693711e+02
0.041485297945    	2.9420477709e+02
0.0417357303584   	2.9421096329e+02
0.0419861627718   	2.9421614117e+02
0.0422365951852   	2.9422145978e+02
0.0424870275986   	2.9422376388e+02
0.0427374600119   	2.9422759076e+02
0.0429878924253   	2.9423248514e+02
0.0432383248387   	2.9423657318e+02
0.0434887572521   	2.9424103965e+02
0.0437391896655   	2.9425009470e+02
0.0439896220788   	2.9425532083e+02
0.0442400544922   	2.9425558172e+02
0.0444904869056   	2.9425857803e+02
0.044740919319    	2.9426499759e+02
0.0449913517324   	2.9427115177e+02
0.0452417841458   	2.9427669740e+02
0.0454922165591   	2.9428233194e+02
0.0457426489725   	2.9429059458e+02
0.0459930813859   	2.9429585117e+02
0.0462435137993   	2.9429784516e+02
0.0464939462127   	2.9430091348e+02
0.046744378626    	2.9430537816e+02
0.0469948110394   	2.9430802312e+02
0.0472452434528   	2.9430744033e+02
0.0474956758662   	2.9430630476e+02
0.0477461082796   	2.9430827101e+02
0.0479965406929   	2.9431401186e+02
0.0482469731063   	2.9431973856e+02
0.0484974055197   	2.9432333954e+02
0.0487478379331   	2.9433401226e+02
0.0489982703465   	2.9432416481e+02
0.0492487027599   	2.9431618983e+02
0.0494991351732   	2.9432611703e+02
0.0497495675866   	2.9433288561e+02
0.05              	2.9433229582e+02
0.05025           	2.9433758870e+02
0.0505            	2.9435701259e+02
0.05075           	2.9437492878e+02
0.051             	2.9438865209e+02
0.05125           	2.9440012311e+02
0.0515            	2.9441377652e+02
0.05175           	2.9443235272e+02
0.052             	2.9445319768e+02
0.05225           	2.9447347078e+02
0.0525            	2.9449223872e+02
0.05275           	2.9451137178e+02
0.053             	2.9453247947e+02
0.05325           	2.9455332363e+02
0.0535            	2.9457111954e+02
0.05375           	2.9458688610e+02
0.054             	2.9460149725e+02
0.05425           	2.9461603777e+02
0.0545            	2.9463507370e+02
0.05475           	2.9465583202e+02
0.055             	2.9467239958e+02
0.05525           	2.9468566301e+02
0.0555            	2.9469744084e+02
0.05575           	2.9470926810e+02
0.056             	2.9472374503e+02
0.05625           	2.9474181009e+02
0.0565            	2.9476195142e+02
0.05675           	2.9478000561e+02
0.057             	2.9479575863e+02
0.05725           	2.9481228780e+02
0.0575            	2.9482823755e+02
0.05775           	2.9484026715e+02
0.058             	2.9485153503e+02
0.05825           	2.9486274457e+02
0.0585            	2.9487448053e+02
0.05875           	2.9488581382e+02
0.059             	2.9489859954e+02
0.05925           	2.9491352406e+02
0.0595            	2.9492872353e+02
0.05975           	2.9494489945e+02
0.06              	2.9495490026e+02
0.06025           	2.9496086202e+02
0.0605            	2.9497013631e+02
0.06075           	2.9498280224e+02
0.061             	2.9499738767e+02
0.06125           	2.9501771398e+02
0.0615            	2.9503660317e+02
0.06175           	2.9503717053e+02
0.062             	2.9505218102e+02
0.06225           	2.9507002035e+02
0.0625            	2.9508953985e+02
0.06275           	2.9511934366e+02
0.063             	2.9515883623e+02
0.06325           	2.9519870435e+02
0.0635            	2.9522955645e+02
0.06375           	2.9525007464e+02
0.064             	2.9526621678e+02
0.06425           	2.9528651548e+02
0.0645            	2.9531399876e+02
0.06475           	2.9534471459e+02
0.065             	2.9537221109e+02
0.06525           	2.9539351012e+02
0.0655            	2.9541192870e+02
0.06575           	2.9543338790e+02
0.066             	2.9546152381e+02
0.06625           	2.9549392152e+02
0.0665            	2.9552568776e+02
0.06675           	2.9555409242e+02
0.067             	2.9558049444e+02
0.06725           	2.9560830238e+02
0.0675            	2.9563885889e+02
0.06775           	2.9567090593e+02
0.068             	2.9570175724e+02
0.06825           	2.9572929267e+02
0.0685            	2.9575306498e+02
0.06875           	2.9577478419e+02
0.069             	2.9579659200e+02
0.06925           	2.9581925448e+02
0.0695            	2.9584266905e+02
0.06975           	2.9586569834e+02
0.07              	2.9588732102e+02
0.07025           	2.9590692410e+02
0.0705            	2.9592531421e+02
0.07075           	2.9594345492e+02
0.071             	2.9596111131e+02
0.07125           	2.9597782761e+02
0.0715            	2.9599438011e+02
0.07175           	2.9601318570e+02
0.072             	2.9603585759e+02
0.07225           	2.9606096930e+02
0.0725            	2.9608762211e+02
0.07275           	2.9611363136e+02
0.073             	2.9613568087e+02
0.07325           	2.9615469259e+02
0.0735            	2.9617445510e+02
0.07375           	2.9619664125e+02
0.074             	2.9622176610e+02
0.07425           	2.9624842560e+02
0.0745            	2.9627349907e+02
0.07475           	2.9629445790e+02
0.075             	2.9631107221e+02
0.07525           	2.9632448303e+02
0.0755            	2.9633795070e+02
0.07575           	2.9635525011e+02
0.076             	2.9637714305e+02
0.07625           	2.9640019180e+02
0.0765            	2.9641963933e+02
0.07675           	2.9643360788e+02
0.077             	2.9644472592e+02
0.07725           	2.9645797647e+02
0.0775            	2.9647682054e+02
0.07775           	2.9650080196e+02
0.078             	2.9652701252e+02
0.07825           	2.9655246952e+02
0.0785            	2.9657547314e+02
0.07875           	2.9659566366e+02
0.079             	2.9661315154e+02
0.07925           	2.9662865108e+02
0.0795            	2.9664438579e+02
0.07975           	2.9666320363e+02
0.08              	2.9668577931e+02
0.08025           	2.9670964321e+02
0.0805            	2.9673106874e+02
0.08075           	2.9674864152e+02
0.081             	2.9676434505e+02
0.08125           	2.9678067597e+02
0.0815            	2.9679772858e+02
0.08175           	2.9681385202e+02
0.082             	2.9682734184e+02
0.08225           	2.9683833313e+02
0.0825            	2.9684847578e+02
0.08275           	2.9686013315e+02
0.083             	2.9687531346e+02
0.08325           	2.9689404377e+02
0.0835            	2.9691449104e+02
0.0837462686567   	2.9693444385e+02
0.0839925373134   	2.9695192162e+02
0.0842388059701   	2.9696699311e+02
0.0844850746269   	2.9698154487e+02
0.0847274953358   	2.9699846247e+02
0.0849699160448   	2.9701844708e+02
0.0852123367537   	2.9704005536e+02
0.0854547574627   	2.9706160985e+02
0.0856932040617   	2.9708300656e+02
0.0859316506606   	2.9710436939e+02
0.0861700972596   	2.9712676493e+02
0.0864085438586   	2.9715139425e+02
0.0866428793093   	2.9717758702e+02
0.08687721476     	2.9720188367e+02
0.0871115502107   	2.9722159532e+02
0.0873458856614   	2.9723689788e+02
0.0875802211121   	2.9724969444e+02
0.0878102170175   	2.9726330428e+02
0.0880402129228   	2.9727868810e+02
0.0882702088281   	2.9729634914e+02
0.0884957817353   	2.9731638376e+02
0.0887213546424   	2.9733772460e+02
0.0889469275496   	2.9736006750e+02
0.0891679889986   	2.9738407550e+02
0.0893890504476   	2.9740832721e+02
0.0896101118966   	2.9743162053e+02
0.0898311733456   	2.9745433846e+02
0.0900475313595   	2.9747848704e+02
0.0902638893735   	2.9750455839e+02
0.0904802473874   	2.9753179721e+02
0.0906966054013   	2.9755887158e+02
0.0909129634152   	2.9758457396e+02
0.0911242898474   	2.9760976917e+02
0.0913356162796   	2.9763454311e+02
0.0915469427119   	2.9765862624e+02
0.0917582691441   	2.9768163539e+02
0.0919695955763   	2.9770343342e+02
0.0921809220085   	2.9772513159e+02
0.0923866872188   	2.9774904752e+02
0.0925924524291   	2.9777530346e+02
0.0927982176394   	2.9780274871e+02
0.0930039828497   	2.9782992227e+02
0.09320974806     	2.9785568403e+02
0.0934155132703   	2.9787976173e+02
0.0936150431712   	2.9790388076e+02
0.0938145730721   	2.9792823247e+02
0.094014102973    	2.9795232480e+02
0.0942136328739   	2.9797571825e+02
0.0944131627748   	2.9799816787e+02
0.0946126926757   	2.9802013546e+02
0.0948122225766   	2.9804269622e+02
0.0950043624812   	2.9806825905e+02
0.0951965023857   	2.9809678098e+02
0.0953886422903   	2.9812746362e+02
0.0955807821949   	2.9816005272e+02
0.0957729220994   	2.9819416523e+02
0.095965062004    	2.9822867511e+02
0.0961572019086   	2.9826144562e+02
0.0963493418132   	2.9828983207e+02
0.0965414817177   	2.9831246414e+02
0.0967235089957   	2.9833265456e+02
0.0969055362738   	2.9835245040e+02
0.0970875635518   	2.9837409681e+02
0.0972695908298   	2.9839976458e+02
0.0974516181078   	2.9842964995e+02
0.0976336453858   	2.9846219680e+02
0.0978156726638   	2.9849498046e+02
0.0979976999418   	2.9852540544e+02
0.0981797272199   	2.9855181516e+02
0.0983617544979   	2.9857410619e+02
0.0985437817759   	2.9859416233e+02
0.0987258090539   	2.9861508354e+02
0.0989078363319   	2.9864030614e+02
0.0990898636099   	2.9867167384e+02
0.0992718908879   	2.9870776959e+02
0.099453918166    	2.9874463279e+02
0.099635945444    	2.9877789223e+02
0.099817972722    	2.9880500636e+02
0.1               	2.9882662530e+02
0.100174825175    	2.9884795601e+02
0.100349039073    	2.9887268605e+02
0.100522643831    	2.9890257024e+02
0.10069564158     	2.9893716016e+02
0.100868034442    	2.9897405895e+02
0.101039824531    	2.9901043866e+02
0.101211013956    	2.9904350517e+02
0.101381604816    	2.9907298044e+02
0.101551599205    	2.9909891753e+02
0.101720999208    	2.9912152869e+02
0.101889806903    	2.9914242532e+02
0.102058024361    	2.9916283862e+02
0.102225653647    	2.9918451403e+02
0.102392696816    	2.9920900801e+02
0.102559155918    	2.9923681086e+02
0.102725032995    	2.9926732521e+02
0.102890330082    	2.9929917352e+02
0.103055049208    	2.9933039105e+02
0.103219192392    	2.9935896375e+02
0.10338276165     	2.9938333678e+02
0.103545758987    	2.9940338340e+02
0.103708186403    	2.9942056223e+02
0.103870045891    	2.9943735629e+02
0.104031339437    	2.9945579493e+02
0.104192069019    	2.9947632842e+02
0.10435223661     	2.9949792947e+02
0.10451128805     	2.9951921599e+02
0.104669785305    	2.9953911642e+02
0.104827730304    	2.9955769423e+02
0.104985124971    	2.9957582141e+02
0.105141971226    	2.9959434685e+02
0.10529772827     	2.9961375206e+02
0.105452944492    	2.9963394830e+02
0.105607621768    	2.9965439841e+02
0.10576176197     	2.9967478206e+02
0.105915366963    	2.9969446427e+02
0.106068438605    	2.9971308554e+02
0.106220978749    	2.9973015286e+02
0.10637298924     	2.9974586506e+02
0.106524471916    	2.9976095305e+02
0.106675954592    	2.9977607716e+02
0.106826909454    	2.9979188298e+02
0.106977338341    	2.9980834499e+02
0.107127243086    	2.9982484245e+02
0.107276625514    	2.9984119906e+02
0.107426007942    	2.9985743835e+02
0.107574868054    	2.9987379976e+02
0.107723207676    	2.9989002609e+02
0.107871028629    	2.9990573388e+02
0.108018849581    	2.9992029909e+02
0.108166151863    	2.9993391337e+02
0.108312937295    	2.9994585854e+02
0.10845920769     	2.9995599149e+02
0.108604964856    	2.9996370962e+02
0.108750210594    	2.9996998142e+02
0.108895456331    	2.9997582747e+02
0.10904019064     	2.9998190110e+02
0.109184415321    	2.9998925193e+02
0.109328132168    	2.9999835183e+02
0.10947134297     	3.0000833665e+02
0.109614049509    	3.0001785458e+02
0.10975625356     	3.0002644865e+02
0.109897956893    	3.0003418633e+02
0.110039660225    	3.0004059319e+02
0.110180862839    	3.0004547994e+02
0.110321566504    	3.0004889407e+02
0.110462270169    	3.0005145216e+02
0.110602474885    	3.0005389068e+02
0.110742182421    	3.0005634102e+02
0.11088139454     	3.0005860072e+02
0.111020606659    	3.0006008121e+02
0.111159323361    	3.0006083046e+02
0.11129754641     	3.0006145664e+02
0.111435769458    	3.0006277272e+02
0.111573498853    	3.0006577668e+02
0.111710736357    	3.0007032629e+02
0.111847973861    	3.0007541074e+02
0.111984719475    	3.0007940264e+02
0.11212097496     	3.0008061658e+02
0.112257230446    	3.0007838308e+02
0.112392995804    	3.0007330366e+02
0.112528761162    	3.0006629363e+02
0.112664036393    	3.0005879725e+02
0.112798823265    	3.0005222180e+02
0.112933610137    	3.0004673959e+02
0.113067908651    	3.0004212201e+02
0.113202207165    	3.0003745230e+02
0.113336017321    	3.0003265430e+02
0.113469340894    	3.0002820842e+02
0.113602664468    	3.0002415810e+02
0.113735501459    	3.0002077425e+02
0.11386833845     	3.0001805010e+02
0.114000688858    	3.0001591406e+02
0.114133039267    	3.0001328230e+02
0.114264903093    	3.0000914536e+02
0.114396766919    	3.0000261588e+02
0.114528144163    	2.9999342264e+02
0.114659521407    	2.9998166280e+02
0.114790412069    	2.9996833362e+02
0.11492081795     	2.9995472667e+02
0.115051223831    	2.9994178221e+02
0.115181144932    	2.9993025908e+02
0.115310583055    	2.9991994704e+02
0.115439539995    	2.9991006912e+02
0.115568017542    	2.9989956825e+02
0.115696495088    	2.9989623217e+02
0.115824493241    	2.9992632733e+02
0.115952013788    	2.9995406721e+02
0.116079058513    	2.9998195490e+02
0.11620562919     	3.0001081589e+02
0.116331727589    	3.0004037925e+02
0.116457355471    	3.0007149648e+02
0.116582514592    	3.0010607790e+02
0.116707673714    	3.0014498789e+02
0.116832364074    	3.0018645045e+02
0.11695658743     	3.0022800016e+02
0.117080810785    	3.0026770094e+02
0.117204567136    	3.0030389737e+02
0.117328323486    	3.0033574511e+02
0.117451612832    	3.0036350487e+02
0.117574902177    	3.0038804094e+02
0.117698191522    	3.0041020915e+02
0.117821012087    	3.0043076517e+02
0.117943832651    	3.0044931486e+02
0.118066184435    	3.0046636013e+02
0.118188536219    	3.0048270110e+02
0.118310419222    	3.0050038252e+02
0.118432302225    	3.0052175652e+02
0.118553716447    	3.0054700433e+02
0.118675130669    	3.0057564478e+02
0.118796076111    	3.0060804690e+02
0.118916554581    	3.0064036468e+02
0.119037033052    	3.0067034428e+02
0.119157044552    	3.0069689557e+02
0.119277056052    	3.0071896438e+02
0.119396600581    	3.0073742290e+02
0.11951614511     	3.0075268860e+02
0.119635222668    	3.0076850995e+02
0.119754300226    	3.0078209566e+02
0.119872910813    	3.0079518080e+02
0.119991056261    	3.0080874414e+02
0.120109201709    	3.0082322956e+02
0.120226882017    	3.0083751274e+02
0.120344099017    	3.0085829837e+02
0.120461316017    	3.0088439859e+02
0.120578069709    	3.0091509021e+02
0.120694361923    	3.0095001256e+02
0.120810654138    	3.0098614471e+02
0.120926484875    	3.0102006485e+02
0.121042315613    	3.0104901266e+02
0.12115814635     	3.0107302055e+02
0.121273513765    	3.0109324902e+02
0.12138888118     	3.0110770926e+02
0.121503785271    	3.0112131303e+02
0.121618689363    	3.0113662165e+02
0.121733593455    	3.0114984354e+02
0.121848032347    	3.0116123091e+02
0.12196247124     	3.0117246823e+02
0.122076444934    	3.0118445445e+02
0.122189955321    	3.0119758189e+02
0.122303465707    	3.0121251476e+02
0.122416512786    	3.0122718842e+02
0.122529559865    	3.0124226440e+02
0.122642143636    	3.0125797343e+02
0.122754727407    	3.0127419002e+02
0.12286684787     	3.0128991667e+02
0.122978968334    	3.0130397225e+02
0.123091088797    	3.0131579841e+02
0.12320274403     	3.0132742819e+02
0.123314399263    	3.0133964750e+02
0.123425589266    	3.0135202025e+02
0.12353677927     	3.0136504042e+02
0.123647969273    	3.0138012433e+02
0.123758692091    	3.0139684612e+02
0.123869414909    	3.0141434846e+02
0.123980137727    	3.0143059896e+02
0.124090391381    	3.0144601057e+02
0.124200645035    	3.0146069769e+02
0.124310898688    	3.0147183519e+02
0.124420681173    	3.0148271534e+02
0.124530463657    	3.0149304624e+02
0.124640246141    	3.0150244847e+02
0.124750028625    	3.0151048360e+02
0.124859811109    	3.0151711607e+02
0.124969116279    	3.0152454386e+02
0.125078421448    	3.0153314737e+02
0.125187726617    	3.0154417382e+02
0.125297031786    	3.0155634841e+02
0.125405855434    	3.0156707711e+02
0.125514679083    	3.0157849338e+02
0.125623502731    	3.0159363336e+02
0.125731842719    	3.0160995312e+02
0.125840182707    	3.0162425164e+02
0.125948522695    	3.0163590171e+02
0.126056376853    	3.0164526836e+02
0.126164231012    	3.0165240033e+02
0.12627208517     	3.0165731058e+02
0.1263794513      	3.0165997520e+02
0.126486817431    	3.0166293029e+02
0.126594183561    	3.0166463912e+02
0.126701059435    	3.0166827594e+02
0.12680793531     	3.0167469895e+02
0.126914811184    	3.0168517487e+02
0.127021194542    	3.0169956016e+02
0.127127577901    	3.0171688548e+02
0.127233468744    	3.0173596672e+02
0.127339359587    	3.0175524923e+02
0.127444757915    	3.0177341182e+02
0.127550156242    	3.0178878674e+02
0.127655062054    	3.0179993660e+02
0.127759967866    	3.0180649100e+02
0.127864381162    	3.0180917039e+02
0.127968794459    	3.0180954727e+02
0.128073207755    	3.0180940532e+02
0.128177126202    	3.0181024357e+02
0.128281044648    	3.0181342666e+02
0.128384963095    	3.0182064132e+02
0.128488384324    	3.0183296950e+02
0.128591805554    	3.0184714837e+02
0.128695226783    	3.0186014976e+02
0.128798148392    	3.0187020172e+02
0.128901070002    	3.0187864066e+02
0.129003991612    	3.0188448503e+02
0.129106411165    	3.0188645891e+02
0.129208830718    	3.0188619775e+02
0.129311250271    	3.0188417608e+02
0.129413669824    	3.0188047758e+02
0.12951558235     	3.0187676812e+02
0.129617494876    	3.0187510069e+02
0.129719407401    	3.0187687056e+02
0.129820810364    	3.0188211928e+02
0.129922213327    	3.0188997246e+02
0.13002361629     	3.0189955141e+02
0.130124507117    	3.0190933418e+02
0.130225397944    	3.0191842255e+02
0.130326288771    	3.0192561614e+02
0.130427179598    	3.0193013385e+02
0.130527553036    	3.0193202884e+02
0.130627926473    	3.0193184313e+02
0.130728299911    	3.0193083553e+02
0.13082815328     	3.0193000759e+02
0.130928006648    	3.0193042785e+02
0.131027860016    	3.0193240920e+02
0.131127713385    	3.0193484193e+02
0.131227041209    	3.0193675666e+02
0.131326369033    	3.0193733854e+02
0.131425696858    	3.0193663180e+02
0.131525024682    	3.0193474642e+02
0.131624352506    	3.0193207424e+02
0.13172314631     	3.0192923098e+02
0.131821940114    	3.0192717377e+02
0.131920733917    	3.0192707227e+02
0.132019527721    	3.0192993484e+02
0.132117781668    	3.0193613424e+02
0.132216035615    	3.0194526556e+02
0.132314289562    	3.0195613062e+02
0.132412000669    	3.0196712551e+02
0.132509711777    	3.0197521005e+02
0.132607422884    	3.0198128859e+02
0.132705133991    	3.0198541350e+02
0.13280229616     	3.0198735416e+02
0.132899458329    	3.0198640398e+02
0.132996620497    	3.0198379420e+02
0.133093782666    	3.0197869708e+02
0.133190944834    	3.0197000399e+02
0.133288107003    	3.0197521830e+02
0.13338470754     	3.0200574129e+02
0.133481308078    	3.0203680575e+02
0.133577908616    	3.0206824767e+02
0.133674509153    	3.0210081530e+02
0.133770541452    	3.0213470141e+02
0.133866573751    	3.0216986520e+02
0.13396260605     	3.0220590336e+02
0.134058066729    	3.0224167993e+02
0.134153527407    	3.0227621397e+02
0.134248988085    	3.0230872957e+02
0.134344448763    	3.0233920536e+02
0.134439330892    	3.0236871709e+02
0.134534213021    	3.0239839567e+02
0.13462909515     	3.0242984193e+02
0.134723977278    	3.0246332677e+02
0.134818273715    	3.0249938113e+02
0.134912570151    	3.0253738962e+02
0.135006866588    	3.0257671919e+02
0.135101163025    	3.0261727964e+02
0.135195459461    	3.0265798438e+02
0.135289755898    	3.0269923297e+02
0.135384052334    	3.0273840481e+02
0.135477744306    	3.0277471971e+02
0.135571436279    	3.0280741998e+02
0.135665128251    	3.0283493582e+02
0.135758820223    	3.0285931802e+02
0.135852512195    	3.0288141189e+02
0.135946204167    	3.0290278443e+02
0.13603989614     	3.0292299577e+02
0.136133588112    	3.0294368188e+02
0.136226651279    	3.0296677844e+02
0.136319714446    	3.0299256521e+02
0.136412777613    	3.0302286339e+02
0.13650584078     	3.0305739203e+02
0.136598903947    	3.0309367241e+02
0.136691967114    	3.0312781207e+02
0.136785030281    	3.0315968646e+02
0.136878093448    	3.0318827679e+02
0.136971156615    	3.0321514252e+02
0.13706355976     	3.0323511796e+02
0.137155962904    	3.0330091340e+02
0.137248366049    	3.0331943215e+02
0.137340769194    	3.0333561290e+02
0.137433172338    	3.0336759056e+02
0.137524901007    	3.0341177354e+02
0.137616629676    	3.0345401769e+02
0.137708358345    	3.0348666016e+02
0.137800087014    	3.0350798132e+02
0.137891815683    	3.0352586664e+02
0.137983544352    	3.0354242824e+02
0.138075273022    	3.0355615873e+02
0.138166301472    	3.0357051863e+02
0.138257329922    	3.0358852092e+02
0.138348358372    	3.0360587789e+02
0.138439386822    	3.0362234231e+02
0.138530415273    	3.0364091420e+02
0.138621443723    	3.0365599574e+02
0.138712472173    	3.0367141939e+02
0.138803500623    	3.0369193744e+02
0.138894529074    	3.0371034765e+02
0.138985557524    	3.0372993552e+02
0.139076585974    	3.0374667806e+02
0.139167614424    	3.0376035429e+02
0.139257884304    	3.0377097253e+02
0.139348154184    	3.0378254241e+02
0.139438424064    	3.0379045020e+02
0.139528693943    	3.0379583213e+02
0.139618963823    	3.0380391345e+02
0.139708455514    	3.0381265946e+02
0.139797947206    	3.0382174155e+02
0.139887438897    	3.0382993321e+02
0.139976930588    	3.0383457878e+02
0.140066422279    	3.0384309334e+02
0.14015591397     	3.0385264082e+02
0.140245405661    	3.0386046487e+02
0.140334083792    	3.0387115136e+02
0.140422761922    	3.0388062299e+02
0.140511440052    	3.0388892341e+02
0.140600118183    	3.0389867422e+02
0.140688796313    	3.0390611231e+02
0.140777474444    	3.0391239405e+02
0.140866152574    	3.0391638422e+02
0.14095397803     	3.0391345541e+02
0.141041803486    	3.0390298163e+02
0.141129628942    	3.0389222105e+02
0.141217454398    	3.0387907969e+02
0.141305279854    	3.0386240304e+02
0.14139310531     	3.0384604629e+02
0.141480930766    	3.0382977085e+02
0.141567860044    	3.0381540973e+02
0.141654789322    	3.0379791291e+02
0.1417417186      	3.0378002089e+02
0.141828647878    	3.0376423626e+02
0.141915577155    	3.0374842874e+02
0.142002506433    	3.0373380266e+02
0.142089435711    	3.0372115428e+02
0.142176364989    	3.0371290030e+02
0.142263294267    	3.0370488198e+02
0.142350223545    	3.0369751944e+02
0.142437152823    	3.0369169142e+02
0.142524082101    	3.0368581501e+02
0.142611011379    	3.0368018474e+02
0.142697940657    	3.0367586199e+02
0.142784869934    	3.0367248252e+02
0.142871799212    	3.0368214270e+02
0.14295768115     	3.0367226368e+02
0.143043563087    	3.0366074254e+02
0.143129445024    	3.0364822281e+02
0.143215326961    	3.0363299925e+02
0.143301208898    	3.0361686059e+02
0.143387090836    	3.0359737145e+02
0.143472972773    	3.0357554254e+02
0.14355885471     	3.0355520501e+02
0.143644736647    	3.0353547949e+02
0.143730618584    	3.0351661818e+02
0.143816500522    	3.0349798815e+02
0.143902382459    	3.0347883995e+02
0.143988264396    	3.0345885677e+02
0.144074146333    	3.0343810857e+02
0.144158801386    	3.0341725618e+02
0.144243456438    	3.0339581403e+02
0.14432811149     	3.0337350863e+02
0.144412766543    	3.0335005229e+02
0.144497421595    	3.0332532300e+02
0.144582076647    	3.0329926743e+02