# Probe 0 (3.4 0.005 1.5)
# Probe 1 (4.4 0.005 1.5)
# Probe 2 (5.4 0.005 1.5)
# Probe 3 (5.9 0.005 1.5)
# Probe 4 (6.2 0.005 1.5)
# Probe 5 (6.7 0.005 1.5)
# Probe 6 (8.2 0.005 1.5)
#           Probe                 0                 1                 2                 3                 4                 5                 6
#            Time
    1.1999904e-06       2.762013901       3.155424598       3.286586802       3.313997906        3.32457678       3.335792484       3.348149028
  2.639965056e-06        2.76201211       3.155422551        3.28658467       3.313995756       3.324574624       3.335790321       3.348146856
  4.367944597e-06        2.76200996       3.155420095       3.286582112       3.313993177       3.324572036       3.335787724       3.348144251
  6.441505713e-06        2.76200738       3.155417148       3.286579043       3.313990082       3.324568931       3.335784609       3.348141123
   8.92973777e-06       2.762004285       3.155413612       3.286575359       3.313986368       3.324565205        3.33578087       3.348137371
  1.191552707e-05        2.76200057       3.155409369        3.28657094       3.313981911       3.324560735       3.335776384       3.348132869
  1.549838863e-05       2.761996113       3.155404277       3.286565636       3.313976563        3.32455537       3.335771001       3.348127466
  1.979776087e-05       2.761990765       3.155398167       3.286559272       3.313970146       3.324548932       3.335764542       3.348120983
  2.495674128e-05       2.761984348       3.155390836       3.286551637       3.313962447       3.324541208       3.335756792       3.348113204
  3.114713435e-05       2.761976649        3.15538204       3.286542475       3.313953209       3.324531941       3.335747493        3.34810387
  3.857523794e-05        2.76196741       3.155371485       3.286531482       3.313942124        3.32452082       3.335736335       3.348092671
  4.748896225e-05       2.761956325       3.155358821       3.286518291       3.313928823       3.324507477       3.335722947       3.348079234
  5.818543142e-05       2.761943024       3.155343625       3.286502464       3.313912864       3.324491467       3.335706883        3.34806311
  7.102064463e-05       2.761927065       3.155325393       3.286483474       3.313893716       3.324472258       3.335687609       3.348043764
  8.642131685e-05       2.761907919        3.15530352       3.286460691       3.313870743       3.324449212       3.335664485       3.348020555
  0.0001049009832       2.761884949       3.155277278       3.286433358       3.313843182       3.324421563       3.335636743        3.34799271
  0.0001270765827        2.76185739       3.155245793       3.286400565       3.313810116       3.324388391       3.335603459       3.347959303
  0.0001536896689       2.761824324       3.155208018       3.286361219       3.313770441        3.32434859       3.335563524        3.34791922
  0.0001856219625        2.76178466       3.155162704       3.286314022        3.31372285       3.324300847        3.33551562       3.347871138
  0.0002239407148        2.76173708       3.155108345       3.286257404        3.31366576       3.324243574       3.335458154        3.34781346
  0.0002699019884       2.761680035       3.155043171       3.286189521       3.313597311       3.324174907       3.335389255       3.347744305
  0.0003250351347       2.761611644       3.154965029        3.28610813       3.313515241       3.324092575       3.335306645       3.347661389
  0.0003911802278       2.761529651       3.154871332       3.286010538       3.313416836       3.323993855       3.335207593        3.34756197
  0.0004705543394       2.761431354       3.154758973       3.285893509        3.31329883       3.323875473       3.335088811       3.347442749
  0.0005658032734       2.761313561       3.154624253        3.28575319       3.313157341       3.323733532       3.334946391       3.347299801
  0.0006799700095       2.761172669       3.154462936       3.285585167       3.312987916       3.323563567       3.334775852       3.347128631
  0.0008169700928       2.761004158       3.154269584       3.285383777       3.312784848        3.32335985       3.334571448       3.346923469
  0.0009814618316       2.760802901       3.154037762       3.285142319       3.312541375         3.3231156       3.334326375       3.346677488
   0.001179117227       2.760563045       3.153759676       3.284852672       3.312249313       3.322822606       3.334032392       3.346382416
   0.001416111804       2.760278756       3.153426925       3.284506085       3.311899837       3.322472014       3.333680617       3.346029338
   0.001666544217       2.759982084       3.153076118       3.284140683        3.31153139       3.322102391       3.333309747       3.345657094
   0.001916976631       2.759688424       3.152726146       3.283776133       3.311163803       3.321733632       3.332939744        3.34528572
   0.002167409044        2.75939624       3.152377029       3.283412436       3.310797077       3.321365735       3.332570606       3.344915216
   0.002417841458       2.759103452       3.152028797       3.283049586       3.310431208       3.320998699       3.332202332       3.344545577
   0.002668273871       2.758807995       3.151681498       3.282687582       3.310066192       3.320632518       3.331834916       3.344176801
   0.002918706284        2.75850835       3.151335205       3.282326418       3.309702025       3.320267191       3.331468357       3.343808883
   0.003169138698       2.758203896       3.150990011       3.281966097       3.309338708       3.319902716       3.331102653       3.343441825
   0.003419571111       2.757895001       3.150646022       3.281606609       3.308976229       3.319539085       3.330737796       3.343075617
   0.003670003524       2.757582993       3.150303354       3.281247956        3.30861459       3.319176296       3.330373785       3.342710257
   0.003920435938       2.757269629       3.149962112       3.280890141       3.308253786       3.318814346       3.330010617       3.342345744
   0.004170868351       2.756956622       3.149622365       3.280533167       3.307893815       3.318453231       3.329648288       3.341982074
   0.004421300765       2.756645364       3.149284122       3.280177039       3.307534673       3.318092949       3.329286796       3.341619243
   0.004671733178       2.756336958       3.148947314       3.279821768       3.307176366       3.317733501       3.328926142       3.341257255
   0.004922165591       2.756032174       3.148611742       3.279467355       3.306818881       3.317374873       3.328566312       3.340896094
   0.005172598005       2.755731208       3.148277098       3.279113821       3.306462226       3.317017069       3.328207308       3.340535763
   0.005423030418       2.755433583       3.147942943       3.278761186       3.306106403       3.316660087       3.327849128        3.34017626
   0.005673462831       2.755138452       3.147608758       3.278409481       3.305751414       3.316303926       3.327491767        3.33981758
   0.005923895245       2.754845047       3.147274019       3.278058741       3.305397265       3.315948586       3.327135222       3.339459721
   0.006174327658       2.754552898       3.146938291       3.277709007       3.305043958       3.315594071       3.326779492        3.33910268
   0.006424760072       2.754261878       3.146601343       3.277360321       3.304691504       3.315240381       3.326424573       3.338746454
   0.006675192485       2.753972116       3.146263214       3.277012723       3.304339913       3.314887518       3.326070464       3.338391039
   0.006925624898       2.753683772        3.14592425       3.276666242       3.303989204       3.314535485       3.325717164       3.338036433
   0.007176057312       2.753396906       3.145585067       3.276320893       3.303639399       3.314184287       3.325364672       3.337682632
   0.007426489725       2.753111433       3.145246487       3.275976667       3.303290532       3.313833942       3.325012997       3.337329642
   0.007676922139       2.752827102       3.144909371       3.275633497       3.302942615       3.313484445       3.324662123       3.336977443
   0.007927354552       2.752543636        3.14457454       3.275291292       3.302595685       3.313135823       3.324312059        3.33662604
   0.008177786965       2.752260771       3.144242614       3.274949889       3.302249751       3.312788075       3.323962786        3.33627541
   0.008428219379       2.751978166       3.143914008       3.274609163       3.301904891       3.312441286       3.323614368       3.335925612
   0.008678651792       2.751695227       3.143588714       3.274268848       3.301561052       3.312095423        3.32326675        3.33557658
   0.008929084205       2.751411388       3.143266528        3.27392877       3.301218243        3.31175053       3.322919961       3.335228333
   0.009179516619       2.751126218       3.142947001       3.273588781       3.300876428       3.311406632       3.322574012       3.334880868
   0.009429949032       2.750839495       3.142629501       3.273248822       3.300535543       3.311063743       3.322228918       3.334534181
   0.009680381446       2.750551262       3.142313249       3.272908942       3.300195498       3.310721867       3.321884696        3.33418827
   0.009930813859       2.750261856       3.141997359       3.272569305       3.299856179       3.310380989       3.321541366       3.333843132
    0.01018124627       2.749971828       3.141680903       3.272230183       3.299517462       3.310041075       3.321198947       3.333498764
    0.01043167869       2.749681921          3.141363       3.271891924       3.299179226       3.309702067       3.320857459       3.333155165
     0.0106821111       2.749392987       3.141042943       3.271554899       3.298841373       3.309363884       3.320516918       3.332812332
    0.01093254351       2.749105893       3.140720308       3.271219428       3.298503844       3.309026424       3.320177334       3.332470263
    0.01118297593       2.748821409       3.140395041       3.270885693       3.298166634       3.308689574       3.319838708       3.332128957
    0.01143340834       2.748540103       3.140067548       3.270553682       3.297829793       3.308353225       3.319501029       3.331788413
    0.01168384075       2.748262263       3.139738678       3.270223158       3.297493422       3.308017281       3.319164269        3.33144863
    0.01193427317       2.747987829       3.139409577       3.269893664       3.297157654       3.307681678       3.318828385       3.331109606
    0.01218470558       2.747716373       3.139081601       3.269564597       3.296822629       3.307346405       3.318493328       3.330771355
    0.01243513799       2.747447105       3.138756066       3.269235252       3.296488414       3.307011447       3.318158989        3.33043385
    0.01268557041       2.747179065       3.138434108       3.268905022       3.296155049       3.306676863       3.317825293       3.330097109
    0.01293600282       2.746911292       3.138116445        3.26857347       3.295822469       3.306342717        3.31749214       3.329761134
    0.01318643523       2.746643017       3.137803308       3.268240466       3.295490516       3.306009074       3.317159435       3.329425932
    0.01343686765       2.746373737        3.13749443        3.26790626       3.295158967       3.305675981       3.316827091       3.329091508
    0.01368730006       2.746103261        3.13718917       3.267571487       3.294827581       3.305343449       3.316495042        3.32875787
    0.01393773247       2.745831708       3.136886671       3.267237113       3.294496154       3.305011449        3.31616324       3.328425029
    0.01418816489       2.745559462       3.136585989       3.266904312       3.294164598       3.304679923       3.315831665       3.328092994
     0.0144385973       2.745287086       3.136286192       3.266574284       3.293832976       3.304348812       3.315500324       3.327761776
    0.01468902971       2.745015217       3.135986362       3.266248051       3.293501559       3.304018085       3.315169247       3.327431386
    0.01493946213       2.744744384       3.135685696        3.26592624       3.293170806       3.303687756       3.314838488       3.327101833
    0.01518989454       2.744474841       3.135383584       3.265608949       3.292841327       3.303357937       3.314508123       3.326773124
    0.01544032695        2.74420645       3.135079698       3.265295655       3.292513785       3.303028848       3.314178246       3.326445261
    0.01569075937       2.743938608       3.134774051       3.264985311       3.292188793       3.302700813       3.313848976        3.32611824
    0.01594119178        2.74367034       3.134466974        3.26467654       3.291866796       3.302374225       3.313520444       3.325792047
    0.01619162419        2.74340057       3.134158912       3.264367851       3.291547961       3.302049489       3.313192793       3.325466659
    0.01644205661       2.743128448       3.133850304       3.264057882       3.291232111       3.301726952       3.312866183       3.325142038
    0.01669248902       2.742853615       3.133541559       3.263745658       3.290918717       3.301406833       3.312540786       3.324818135
    0.01694292143       2.742576324       3.133235493       3.263431547       3.290606993       3.301089163       3.312216767       3.324494885
    0.01719335385       2.742297415       3.132933142       3.263115701       3.290295951        3.30077374       3.311894276       3.324172212
    0.01744378626       2.742018199       3.132631865       3.262799364       3.289984562       3.300460146       3.311573429       3.323850034
    0.01769421867       2.741740227       3.132329388       3.262483936       3.289671923       3.300147746       3.311254285       3.323528265
    0.01794465109       2.741465018       3.132024907       3.262169968       3.289357453       3.299835791       3.310936825       3.323206827
     0.0181950835       2.741193782       3.131716956       3.261856972       3.289040987       3.299523475       3.310620935       3.322885658
    0.01844551591       2.740927251       3.131404931        3.26154354       3.288722839       3.299210068       3.310306408       3.322564718
    0.01869594833       2.740665626       3.131089669       3.261227768       3.288403727       3.298895076        3.30999294       3.322244003
    0.01894638074       2.740408582       3.130773101       3.260907949       3.288084555       3.298578352       3.309680159       3.321923543
    0.01919681315       2.740155336       3.130457676       3.260583331       3.287766153       3.298260159       3.309367664       3.321603433
    0.01944724557       2.739904695        3.13014579       3.260254575       3.287448928       3.297941049       3.309054989        3.32128374
    0.01969767798       2.739655366       3.129839454       3.259923885       3.287132844       3.297621865       3.308741786        3.32096463
    0.01994811039       2.739406179       3.129539867       3.259594249        3.28681736       3.297303446       3.308427797       3.320646274
    0.02019854281       2.739156255       3.129247281        3.25926874       3.286501645       3.296986443        3.30811294       3.320328852
    0.02044897522        2.73890508       3.128961075       3.258950055        3.28618492       3.296671147       3.307797335       3.320012537
    0.02069940763        2.73865246       3.128679955       3.258639991        3.28586684       3.296357411       3.307481305       3.319697471
    0.02094984005       2.738398416       3.128402209       3.258338943         3.2855478       3.296044717        3.30716533       3.319383749
    0.02120027246        2.73814304       3.128125987       3.258045714       3.285228986       3.295732377       3.306849957       3.319071404
    0.02145070487       2.737886378       3.127849533       3.257757881       3.284912147       3.295419826       3.306535703       3.318760411
    0.02170113729         2.7376284       3.127571334        3.25747236       3.284599158       3.295106871       3.306222941       3.318450683
     0.0219515697       2.737369042       3.127290252       3.257185949       3.284291519       3.294793839       3.305911828       3.318142086
    0.02220200211       2.737108294       3.127005614       3.256895944       3.283989847       3.294481573       3.305602276       3.317834443
    0.02245243453       2.736846304       3.126717298       3.256600644       3.283693587       3.294171248       3.305293991       3.317527545
    0.02270286694       2.736583421       3.126425684       3.256299598       3.283401152       3.293863983       3.304986572       3.317221166
    0.02295329935       2.736320232       3.126131332       3.255993525       3.283110274       3.293560435       3.304679644       3.316915083
    0.02320373177       2.736057545       3.125835067       3.255684028       3.282818422       3.293260578       3.304372971       3.316609097
    0.02345416418       2.735796319       3.125537823        3.25537317       3.282523372       3.292963658       3.304066531       3.316303059
    0.02370459659       2.735537547       3.125240505       3.255062989       3.282223705       3.292668284       3.303760517       3.315996889
    0.02395502901       2.735282122       3.124943895       3.254755067       3.281919122       3.292372726       3.303455256       3.315690591
    0.02420546142       2.735030713       3.124648622       3.254450291       3.281610436       3.292075349       3.303151076        3.31538425
    0.02445589384       2.734783669       3.124355385       3.254148822       3.281299307       3.291775046        3.30284819       3.315078032
    0.02470632625       2.734540966       3.124065033       3.253850225       3.280987831       3.291471499       3.302546606       3.314772162
    0.02495675866       2.734302159       3.123778217       3.253553723       3.280678049       3.291165222        3.30224611       3.314466901
    0.02520719108       2.734066376       3.123495318       3.253258484       3.280371538       3.290857399       3.301946315       3.314162518
    0.02545762349       2.733832395       3.123216386       3.252963864       3.280069124       3.290549599       3.301646784       3.313859253
     0.0257080559       2.733598841       3.122941092       3.252669542       3.279770809        3.29024338       3.301347162       3.313557287
    0.02595848832         2.7333644       3.122668758       3.252375525       3.279475902       3.289939953       3.301047259       3.313256708
    0.02620892073        2.73312778       3.122398477       3.252082056       3.279183294       3.289639923       3.300747086       3.312957496
    0.02645935314         2.7328879       3.122129245       3.251789456       3.278891795       3.289343226       3.300446855       3.312659509
    0.02670978556       2.732644115       3.121860032       3.251497969       3.278600447       3.289049238       3.300146903       3.312362499
    0.02696021797        2.73239632        3.12158988       3.251207658       3.278308717       3.288757022       3.299847612       3.312066139
    0.02721065038        2.73214499        3.12131797       3.250918377       3.278016518       3.288465611       3.299549312       3.311770063
     0.0274610828       2.731891091       3.121043686       3.250629826       3.277724103       3.288174251       3.299252218       3.311473921
    0.02771151521       2.731635898       3.120766679       3.250341668       3.277431881       3.287882548       3.298956416        3.31117744
    0.02796194762       2.731380763        3.12048687       3.250053631       3.277140229       3.287590502       3.298661881       3.310880474
    0.02821238004       2.731126888       3.120204392       3.249765549       3.276849349       3.287298426       3.298368525       3.310583041
    0.02846281245       2.730875146       3.119919621       3.249477356       3.276559205       3.287006773        3.29807624        3.31028533
    0.02871324486       2.730625996       3.119633166       3.249189035       3.276269568       3.286715951       3.297784937       3.309987681
    0.02896367728       2.730379474       3.119345853       3.248900545       3.275980116       3.286426162       3.297494565       3.309690534
    0.02921410969        2.73013527       3.119058662       3.248611773       3.275690564       3.286137329       3.297205088       3.309394366
     0.0294645421       2.729892847       3.118772651       3.248322534       3.275400753       3.285849125       3.296916457       3.309099608
    0.02971497452       2.729651578       3.118488838       3.248032634       3.275110679       3.285561069        3.29662857       3.308806579
    0.02996540693       2.729410875       3.118208091        3.24774196        3.27482047       3.285272685       3.296341252       3.308515429
    0.03021583934       2.729170277       3.117931029       3.247450579       3.274530311       3.284983635       3.296054256       3.308226113
    0.03046627176       2.728929536       3.117657961       3.247158812       3.274240395       3.284693854       3.295767318       3.307938442
    0.03071670417        2.72868853       3.117388781       3.246867103        3.27395074       3.284403427       3.295480073       3.307651994
    0.03096713658        2.72844739        3.11712331       3.246576145       3.273661381        3.28411273       3.295192311       3.307366367
      0.031217569       2.728206372       3.116861097       3.246286649       3.273372282       3.283822183       3.294903896       3.307081117
    0.03146800141       2.727965819       3.116601463       3.245999262       3.273083439       3.283532169       3.294614838       3.306795854
    0.03171843382       2.727726107       3.116343591       3.245714475        3.27279495       3.283242951         3.2943253       3.306510303
    0.03196886624       2.727487569       3.116086626       3.245432582       3.272507044       3.282954647       3.294035581       3.306224338
    0.03221929865       2.727250442       3.115829756       3.245153669       3.272220064       3.282667264        3.29374607       3.305937995
    0.03246973106        2.72701483       3.115572281        3.24487766        3.27193442        3.28238077       3.293457176       3.305651458
    0.03272016348       2.726780691       3.115313669       3.244604355       3.271650508       3.282095174       3.293169269       3.305365021
    0.03297059589       2.726547866       3.115053606       3.244333465       3.271368649       3.281810581        3.29288262       3.305079038
     0.0332210283       2.726316125       3.114792021       3.244064596       3.271089035       3.281527201       3.292597374       3.304793854
    0.03347146072        2.72608522       3.114529051       3.243797215       3.270811714       3.281245307       3.292313546       3.304509745
    0.03372189313       2.725854941       3.114264937       3.243530643       3.270536587       3.280965171       3.292031042       3.304226869
    0.03397232554       2.725625152       3.113999946       3.243264064       3.270263429       3.280686981       3.291749715       3.303945235
    0.03422275796       2.725395794       3.113734309       3.242996599       3.269991896       3.280410782        3.29146941       3.303664705
    0.03447319037       2.725166835       3.113468204       3.242727399       3.269721541       3.280136451       3.291190019       3.303385028
    0.03472362278       2.724938226       3.113201804       3.242455771       3.269451825         3.2798637       3.290911508       3.303105883
     0.0349740552       2.724709856       3.112935286       3.242181289       3.269182141       3.279592113        3.29063392       3.302826942
    0.03522448761        2.72448153       3.112668825       3.241903877       3.268911853       3.279321199       3.290357346       3.302547933
    0.03547492002       2.724252991       3.112402577       3.241623848       3.268640359       3.279050442       3.290081886        3.30226869
    0.03572535244       2.724023985       3.112136715       3.241341883       3.268367174        3.27877935       3.289807594        3.30198918
    0.03597578485       2.723794348       3.111871469       3.241058952       3.268092004       3.278507491       3.289534432       3.301709499
    0.03622621726       2.723564067       3.111607118       3.240776195       3.267814819       3.278234534       3.289262239       3.301429852
    0.03647664968       2.723333318       3.111343954       3.240494768       3.267535881       3.277960281       3.288990735       3.301150508
    0.03672708209       2.723102449       3.111082246       3.240215664       3.267255736       3.277684694       3.288719547       3.300871757
     0.0369775145       2.722871949       3.110822204       3.239939565       3.266975157       3.277407917       3.288448264       3.300593859
    0.03722794692       2.722642364       3.110563945        3.23966672       3.266695051       3.277130275       3.288176501       3.300317007
    0.03747837933       2.722414179       3.110307483       3.239396906       3.266416325       3.276852255       3.287903973       3.300041313
    0.03772881174       2.722187691       3.110052758       3.239129494       3.266139754       3.276574455       3.287630552       3.299766802
    0.03797924416        2.72196294       3.109799692       3.238863601       3.265865847        3.27629751       3.287356294       3.299493425
    0.03822967657       2.721739688       3.109548239       3.238598321       3.265594753       3.276022002       3.287081445       3.299221079
    0.03848010898       2.721517467       3.109298407       3.238332942       3.265326234       3.275748369       3.286806398       3.298949632
     0.0387305414       2.721295742       3.109050212       3.238067112       3.265059707       3.275476824       3.286531636       3.298678942
    0.03898097381        2.72107399       3.108803586       3.237800877       3.264794367       3.275207319       3.286257652       3.298408881
    0.03923140622       2.720851761       3.108558297       3.237534606       3.264529352        3.27493955       3.285984868       3.298139344
    0.03948183864       2.720628712       3.108313905       3.237268818       3.264263932       3.274673013       3.285713569       3.297870251
    0.03973227105        2.72040464       3.108069787       3.237003988       3.263997651       3.274407111       3.285443867       3.297601548
    0.03998270346       2.720179515       3.107825222       3.236740396        3.26373041       3.274141272       3.285175685       3.297333207
    0.04023313588       2.719953489       3.107579518       3.236478069       3.263462453       3.273875068       3.284908781       3.297065215
    0.04048356829       2.719726901       3.107332125       3.236216815       3.263194279       3.273608298       3.284642801       3.296797575
     0.0407340007       2.719500237       3.107082737        3.23595632       3.262926498       3.273341017       3.284377343       3.296530293
    0.04098443312       2.719274051       3.106831305       3.235696254       3.262659682        3.27307351       3.284112023       3.296263384
    0.04123486553        2.71904886       3.106577985       3.235436356       3.262394243       3.272806206       3.283846547       3.295996863
    0.04148529795       2.718825053       3.106323144       3.235176461        3.26213037       3.272539572        3.28358075       3.295730748
    0.04173573036       2.718602821       3.106067384       3.234916486        3.26186803       3.272273999       3.283314615       3.295465057
    0.04198616277       2.718382206       3.105811519       3.234656414        3.26160701       3.272009725       3.283048273       3.295199812
    0.04223659519       2.718163444       3.105556489       3.234396264       3.261346999         3.2717468       3.282781966       3.294935029
     0.0424870276       2.717945797        3.10530325       3.234136095       3.261087656       3.271485097       3.282516003       3.294670726
    0.04273746001       2.717728356       3.105052662       3.233876009       3.260828682       3.271224365       3.282250702       3.294406912
    0.04298789243       2.717509938       3.104805331       3.233616154       3.260569854       3.270964312        3.28198634       3.294143596
    0.04323832484       2.717289561       3.104561492       3.233356702       3.260311043       3.270704673       3.281723107       3.293880775
    0.04348875725       2.717066811       3.104320983       3.233097825       3.260052214       3.270445271       3.281461084       3.293618436
    0.04373918967       2.716841917       3.104083248       3.232839661       3.259793411       3.270186043       3.281200244       3.293356553
    0.04398962208        2.71661563       3.103847437       3.232582301       3.259534729       3.269927036       3.280940475       3.293095086
    0.04424005449       2.716388927        3.10361257       3.232325794       3.259276293       3.269668379       3.280681612       3.292833978
    0.04449048691       2.716162762       3.103377691       3.232070177       3.259018227       3.269410237       3.280423486       3.292573167
    0.04474091932        2.71593791        3.10314198       3.231815499       3.258760632       3.269152761       3.280165958       3.292312588
    0.04499135173       2.715714923       3.102904816       3.231561837       3.258503582       3.268896044       3.279908945       3.292052189
    0.04524178415       2.715494129       3.102665819       3.231309273       3.258247123       3.268640092       3.279652423       3.291791941