# Probe 0 (4.8 0.005 1.5)
#           Probe                 0
#            Time
    1.1999904e-06                 1
  2.639965056e-06                 1
  4.367944597e-06                 1
  6.441505713e-06                 1
   8.92973777e-06                 1
  1.191552707e-05                 1
  1.549838863e-05                 1
  1.979776087e-05                 1
  2.495674128e-05                 1
  3.114713435e-05                 1
  3.857523794e-05                 1
  4.748896225e-05                 1
  5.818543142e-05                 1
  7.102064463e-05                 1
  8.642131685e-05                 1
  0.0001049009832                 1
  0.0001270765827                 1
  0.0001536896689                 1
  0.0001856219625                 1
  0.0002239407148                 1
  0.0002699019884                 1
  0.0003250351347                 1
  0.0003911802278                 1
  0.0004705543394                 1
  0.0005658032734                 1
  0.0006799700095                 1
  0.0008169700928                 1
  0.0009814618316                 1
   0.001179117227                 1
   0.001416111804                 1
   0.001666544217                 1
   0.001916976631                 1
   0.002167409044                 1
   0.002417841458                 1
   0.002668273871                 1
   0.002918706284                 1
   0.003169138698                 1
   0.003419571111                 1
   0.003670003524                 1
   0.003920435938                 1
   0.004170868351                 1
   0.004421300765                 1
   0.004671733178                 1
   0.004922165591                 1
   0.005172598005                 1
   0.005423030418                 1
   0.005673462831                 1
   0.005923895245                 1
   0.006174327658                 1
   0.006424760072                 1
   0.006675192485                 1
   0.006925624898                 1
   0.007176057312                 1
   0.007426489725                 1
   0.007676922139                 1
   0.007927354552                 1
   0.008177786965                 1
   0.008428219379                 1
   0.008678651792                 1
   0.008929084205                 1
   0.009179516619                 1
   0.009429949032                 1
   0.009680381446                 1
   0.009930813859                 1
    0.01018124627                 1
    0.01043167869                 1
     0.0106821111                 1
    0.01093254351                 1
    0.01118297593                 1
    0.01143340834                 1
    0.01168384075                 1
    0.01193427317                 1
    0.01218470558                 1
    0.01243513799                 1
    0.01268557041                 1
    0.01293600282                 1
    0.01318643523                 1
    0.01343686765                 1
    0.01368730006                 1
    0.01393773247                 1
    0.01418816489                 1
     0.0144385973                 1
    0.01468902971                 1
    0.01493946213                 1
    0.01518989454                 1
    0.01544032695                 1
    0.01569075937                 1
    0.01594119178                 1
    0.01619162419                 1
    0.01644205661                 1
    0.01669248902                 1
    0.01694292143                 1
    0.01719335385                 1
    0.01744378626                 1
    0.01769421867                 1
    0.01794465109                 1
     0.0181950835                 1
    0.01844551591                 1
    0.01869594833                 1
    0.01894638074                 1
    0.01919681315                 1
    0.01944724557                 1
    0.01969767798                 1
    0.01994811039                 1
    0.02019854281                 1
    0.02044897522                 1
    0.02069940763                 1
    0.02094984005                 1
    0.02120027246                 1
    0.02145070487                 1
    0.02170113729                 1
     0.0219515697                 1
    0.02220200211                 1
    0.02245243453                 1
    0.02270286694                 1
    0.02295329935                 1
    0.02320373177                 1
    0.02345416418                 1
    0.02370459659                 1
    0.02395502901                 1
    0.02420546142                 1
    0.02445589384                 1
    0.02470632625                 1
    0.02495675866                 1
    0.02520719108                 1
    0.02545762349                 1
     0.0257080559                 1
    0.02595848832                 1
    0.02620892073                 1
    0.02645935314                 1
    0.02670978556                 1
    0.02696021797                 1
    0.02721065038                 1
     0.0274610828                 1
    0.02771151521                 1
    0.02796194762                 1
    0.02821238004                 1
    0.02846281245                 1
    0.02871324486                 1
    0.02896367728                 1
    0.02921410969                 1
     0.0294645421                 1
    0.02971497452                 1
    0.02996540693                 1
    0.03021583934                 1
    0.03046627176                 1
    0.03071670417                 1
    0.03096713658                 1
      0.031217569                 1
    0.03146800141                 1
    0.03171843382                 1
    0.03196886624                 1
    0.03221929865                 1
    0.03246973106                 1
    0.03272016348                 1
    0.03297059589                 1
     0.0332210283                 1
    0.03347146072                 1
    0.03372189313                 1
    0.03397232554                 1
    0.03422275796                 1
    0.03447319037                 1
    0.03472362278                 1
     0.0349740552                 1
    0.03522448761                 1
    0.03547492002                 1
    0.03572535244                 1
    0.03597578485                 1
    0.03622621726                 1
    0.03647664968                 1
    0.03672708209                 1
     0.0369775145                 1
    0.03722794692                 1
    0.03747837933                 1
    0.03772881174                 1
    0.03797924416                 1
    0.03822967657                 1
    0.03848010898                 1
     0.0387305414                 1
    0.03898097381                 1
    0.03923140622                 1
    0.03948183864                 1
    0.03973227105                 1
    0.03998270346                 1
    0.04023313588                 1
    0.04048356829                 1
     0.0407340007                 1
    0.04098443312                 1
    0.04123486553                 1
    0.04148529795                 1
    0.04173573036                 1
    0.04198616277                 1
    0.04223659519                 1
     0.0424870276                 1
    0.04273746001                 1
    0.04298789243                 1
    0.04323832484                 1
    0.04348875725                 1
    0.04373918967                 1
    0.04398962208                 1
    0.04424005449                 1
    0.04449048691                 1
    0.04474091932                 1
    0.04499135173                 1
    0.04524178415                 1
    0.04549221656                 1
    0.04574264897                 1
    0.04599308139                 1
     0.0462435138                 1
    0.04649394621                 1
    0.04674437863                 1
    0.04699481104                 1
    0.04724524345                 1
    0.04749567587                 1
    0.04774610828                 1
    0.04799654069                 1
    0.04824697311                 1
    0.04849740552                 1
    0.04874783793                 1
    0.04899827035                 1
    0.04924870276                 1
    0.04949913517                 1
    0.04974956759                 1
             0.05                 1
          0.05025                 1
           0.0505                 1
          0.05075                 1
            0.051                 1
          0.05125                 1
           0.0515                 1
          0.05175                 1
            0.052                 1
          0.05225                 1
           0.0525                 1
          0.05275                 1
            0.053                 1
          0.05325                 1
           0.0535                 1
          0.05375                 1
            0.054                 1
          0.05425                 1
           0.0545                 1
          0.05475                 1
            0.055                 1
          0.05525                 1
           0.0555                 1
          0.05575                 1
            0.056                 1
          0.05625                 1
           0.0565                 1
          0.05675                 1
            0.057                 1
          0.05725                 1
           0.0575                 1
          0.05775                 1
            0.058                 1
          0.05825                 1
           0.0585                 1
          0.05875                 1
            0.059                 1
          0.05925                 1
           0.0595                 1
          0.05975                 1
             0.06                 1
          0.06025                 1
           0.0605                 1
          0.06075                 1
            0.061                 1
          0.06125                 1
           0.0615                 1
          0.06175                 1
            0.062                 1
          0.06225                 1
           0.0625                 1
          0.06275                 1
            0.063                 1
          0.06325                 1
           0.0635                 1
          0.06375                 1
            0.064                 1
          0.06425                 1
           0.0645                 1
          0.06475                 1
            0.065                 1
          0.06525                 1
           0.0655                 1
          0.06575                 1
            0.066                 1
          0.06625                 1
           0.0665                 1
          0.06675                 1
            0.067                 1
          0.06725                 1
           0.0675                 1
          0.06775                 1
            0.068                 1
          0.06825                 1
           0.0685                 1
          0.06875                 1
            0.069                 1
          0.06925      0.9999999999
           0.0695      0.9999999999
          0.06975      0.9999999999
             0.07      0.9999999999
          0.07025      0.9999999999
           0.0705      0.9999999999
          0.07075      0.9999999999
    0.07099788136      0.9999999999
    0.07124366202      0.9999999999
     0.0714873598      0.9999999999
    0.07173105758      0.9999999999
    0.07197267247      0.9999999998
    0.07221222228      0.9999999998
    0.07245177209      0.9999999998
    0.07268925681      0.9999999998
    0.07292469425      0.9999999998
     0.0731601317      0.9999999998
    0.07339352185      0.9999999997
    0.07362691201      0.9999999997
    0.07386030217      0.9999999997
    0.07409162693      0.9999999997
    0.07432090457      0.9999999996
    0.07455018221      0.9999999996
    0.07477741272      0.9999999996
     0.0750026144      0.9999999995
    0.07522580534      0.9999999995
    0.07544899628      0.9999999994
     0.0756701765      0.9999999994
    0.07589135671      0.9999999993
    0.07611052619      0.9999999993
    0.07632969568      0.9999999992
    0.07654685443      0.9999999991
    0.07676202091      0.9999999991
    0.07697718738       0.999999999
    0.07719036157      0.9999999989
    0.07740353576      0.9999999988
    0.07761471767      0.9999999987
    0.07782589958      0.9999999986
    0.07803508921      0.9999999985
    0.07824427883      0.9999999984
    0.07845346846      0.9999999982
    0.07866064665      0.9999999981
    0.07886782483      0.9999999979
    0.07907299158      0.9999999978
    0.07927815833      0.9999999976
    0.07948131364      0.9999999974
    0.07968446895      0.9999999972
    0.07988561283       0.999999997
     0.0800867567      0.9999999968
    0.08028588913      0.9999999965
    0.08048502156      0.9999999962
    0.08068214256      0.9999999959
    0.08087727243      0.9999999956
     0.0810724023      0.9999999953
    0.08126554106       0.999999995
    0.08145867981      0.9999999946
    0.08164982744      0.9999999942
    0.08183900448      0.9999999938
    0.08202818151      0.9999999933
    0.08221538795      0.9999999929
     0.0824025944      0.9999999923
    0.08258783025      0.9999999918
    0.08277306609      0.9999999912
    0.08295633135      0.9999999906
     0.0831395966        0.99999999
    0.08332089126      0.9999999893
    0.08350218592      0.9999999885
    0.08368348058      0.9999999878
    0.08386278299       0.999999987
    0.08404208541      0.9999999861
    0.08421939557      0.9999999852
    0.08439670573      0.9999999842
    0.08457401589      0.9999999832
    0.08475132605      0.9999999821
    0.08492659817      0.9999999809
    0.08510187028      0.9999999797
     0.0852771424      0.9999999784
    0.08545035249      0.9999999771
    0.08562356258      0.9999999757
    0.08579677267      0.9999999741
    0.08596998276      0.9999999725
    0.08614319284      0.9999999708
    0.08631426454       0.999999969
    0.08648533623      0.9999999672
    0.08665640792      0.9999999652
    0.08682747962       0.999999963
    0.08699635808      0.9999999608
    0.08716523655      0.9999999585
    0.08733411502       0.999999956
     0.0875007714      0.9999999534
    0.08766742778      0.9999999507
    0.08783408416      0.9999999478
    0.08799848843      0.9999999448
     0.0881628927      0.9999999417
    0.08832729697      0.9999999384
    0.08848941784      0.9999999349
    0.08865153872      0.9999999313
    0.08881365959      0.9999999274
    0.08897346445      0.9999999234
    0.08913326932      0.9999999192
    0.08929307418      0.9999999148
    0.08945287904      0.9999999102
    0.08961029876      0.9999999053
    0.08976771848      0.9999999002
    0.08992513819      0.9999998949
    0.09008255791      0.9999998893
    0.09023751794      0.9999998835
    0.09039247797      0.9999998774
      0.090547438       0.999999871
    0.09070239804      0.9999998642
    0.09085481774      0.9999998573
    0.09100723745        0.99999985
    0.09115965715      0.9999998424
    0.09131207685      0.9999998343
    0.09146449656      0.9999998259
    0.09161691626      0.9999998171
    0.09176661419       0.999999808
    0.09191631211      0.9999997984
    0.09206601004      0.9999997884
    0.09221570796      0.9999997778
    0.09236540588      0.9999997668
    0.09251510381      0.9999997553
    0.09266186648      0.9999997434
    0.09280862915       0.999999731
    0.09295539182       0.999999718
    0.09310215449      0.9999997043
    0.09324891716      0.9999996901
    0.09339255722      0.9999996755
    0.09353619728      0.9999996602
    0.09367983734      0.9999996442
     0.0938234774      0.9999996274
    0.09396711746      0.9999996099
    0.09411075752      0.9999995915
    0.09425439758      0.9999995723
    0.09439453423      0.9999995528
    0.09453467087      0.9999995323
    0.09467480752      0.9999995109
    0.09481494416      0.9999994886
     0.0949550808      0.9999994653
    0.09509521745       0.999999441
    0.09523146141      0.9999994163
    0.09536770537      0.9999993907
    0.09550394933      0.9999993639
    0.09564019329      0.9999993361
    0.09577643725      0.9999993072
    0.09591268121      0.9999992771
    0.09604892517      0.9999992458
    0.09618516913      0.9999992131
    0.09632141309      0.9999991791
    0.09645765705      0.9999991437
    0.09658885493      0.9999991082
    0.09672005282      0.9999990713
    0.09685125071      0.9999990328
    0.09698244859      0.9999989928
    0.09711364648      0.9999989511
    0.09724484437      0.9999989078
    0.09737604226      0.9999988627
    0.09750724014      0.9999988158
    0.09763843803       0.999998767
    0.09776963592      0.9999987163
     0.0979008338      0.9999986635
    0.09803203169      0.9999986086
    0.09816322958      0.9999985514
    0.09829442747      0.9999984919
    0.09842562535      0.9999984299
    0.09855682324      0.9999983654
    0.09868802113      0.9999982982
    0.09881921902      0.9999982282
     0.0989504169      0.9999981554
    0.09908161479      0.9999980796
    0.09921281268      0.9999980007
    0.09934401056      0.9999979185
    0.09947520845      0.9999978331
    0.09960640634      0.9999977443
    0.09973760423      0.9999976519
    0.09986880211      0.9999975557
              0.1      0.9999974557
     0.1001246883      0.9999973568
     0.1002493766      0.9999972542
     0.1003737531      0.9999971477
     0.1004978187      0.9999970374
     0.1006215742       0.999996923
     0.1007450203      0.9999968045
     0.1008681577      0.9999966816
     0.1009909873      0.9999965543
     0.1011135098      0.9999964225
     0.1012357261      0.9999962859
     0.1013576367      0.9999961444
     0.1014792427       0.999995998
     0.1016005446      0.9999958464
     0.1017215432      0.9999956896
     0.1018422393      0.9999955274
     0.1019626337      0.9999953595
     0.1020827271      0.9999951859
     0.1022025203      0.9999950062
      0.102322014      0.9999948204
      0.102441209      0.9999946281
      0.102560106      0.9999944293
     0.1026787057      0.9999942236
     0.1027970089      0.9999940108
     0.1029150164      0.9999937908
     0.1030327289      0.9999935632
     0.1031504413      0.9999933274
     0.1032678588      0.9999930835
     0.1033846891      0.9999928321
     0.1035012274      0.9999925723
     0.1036174743      0.9999923038
     0.1037334307      0.9999920264
     0.1038490971      0.9999917398
     0.1039644743      0.9999914438
     0.1040795631      0.9999911379
     0.1041943642      0.9999908221
     0.1043088783      0.9999904958
     0.1044231061      0.9999901588
     0.1045370484      0.9999898108
     0.1046507057      0.9999894514
      0.104764079      0.9999890804
     0.1048771688      0.9999886975
     0.1049899759      0.9999883024
     0.1051025009      0.9999878948
     0.1052147447      0.9999874746
     0.1053267078      0.9999870414
      0.105438391      0.9999865949
     0.1055497951       0.999986135
     0.1056609206      0.9999856612
     0.1057717683      0.9999851734
      0.105882616        0.99998467
     0.1059931859      0.9999841517
     0.1061034786      0.9999836182
      0.106213495      0.9999830692
     0.1063232356      0.9999825041
     0.1064327012      0.9999819227
     0.1065418924      0.9999813244
     0.1066508099      0.9999807089
     0.1067597275      0.9999800741
     0.1068683714      0.9999794212
     0.1069767423      0.9999787496
      0.107084841      0.9999780591
      0.107192668      0.9999773493
     0.1073002241      0.9999766197
     0.1074077802      0.9999758679
     0.1075150654      0.9999750954
     0.1076220804      0.9999743015
     0.1077288258      0.9999734858
     0.1078353023      0.9999726475
     0.1079417788      0.9999717837
     0.1080479864      0.9999708959
     0.1081539258      0.9999699831
     0.1082598653      0.9999690422
     0.1083655365      0.9999680732
     0.1084709402      0.9999670777
     0.1085760771      0.9999660544
     0.1086809477      0.9999650022
     0.1087858184      0.9999639176
      0.108890423      0.9999628009
      0.108994762      0.9999616525
     0.1090988362      0.9999604744
     0.1092026463      0.9999592629
     0.1093061928      0.9999580207
     0.1094094766      0.9999567441
     0.1095127604      0.9999554305
     0.1096157814      0.9999540852
     0.1097185402      0.9999527063
     0.1098210375      0.9999512905
     0.1099235349      0.9999498347
     0.1100257708      0.9999483451
     0.1101277458      0.9999468193
     0.1102297209      0.9999452489
     0.1103314352      0.9999436385
     0.1104328893      0.9999419876
      0.110534084      0.9999402985
     0.1106352786      0.9999385602
     0.1107362138      0.9999367809
     0.1108368902       0.999934954
     0.1109373084      0.9999330802
     0.1110374692      0.9999311591
     0.1111376299      0.9999291846
     0.1112375332      0.9999271611
     0.1113371796      0.9999250917
     0.1114368261      0.9999229678
     0.1115362157      0.9999207889
     0.1116356053      0.9999185515
     0.1117347381      0.9999162612
     0.1118338709      0.9999139122
     0.1119327469       0.999911514
     0.1120316229      0.9999090393
      0.112130242      0.9999065162
      0.112228605      0.9999039254
     0.1123269681      0.9999012795
     0.1124250749       0.999898563
     0.1125231818      0.9998957686
     0.1126210325      0.9998929074
     0.1127186277      0.9998899988
     0.1128162229      0.9998870237
     0.1129135626        0.99988396
     0.1130106475      0.9998808185
     0.1131077325      0.9998776176
     0.1132045626      0.9998743464
     0.1133011385      0.9998709784
     0.1133977145      0.9998675414
     0.1134940363      0.9998640316
     0.1135903581      0.9998604334
     0.1136864257      0.9998567526
     0.1137822399      0.9998529891
     0.1138780541       0.999849131
     0.1139736148       0.999845187
     0.1140691755      0.9998411451
     0.1141644827      0.9998370145
     0.1142597899      0.9998327831
     0.1143548437      0.9998284682
     0.1144498974       0.999824052
     0.1145446977      0.9998195358
     0.1146392452      0.9998149229
     0.1147337927      0.9998102088
     0.1148280873      0.9998053913
     0.1149221299      0.9998004725
     0.1150161724       0.999795438
     0.1151099628      0.9997902985
     0.1152037533      0.9997849962
     0.1152972916      0.9997796118
     0.1153905784      0.9997741246
     0.1154838653      0.9997685111
     0.1155769007      0.9997627814
     0.1156699361      0.9997569168
       0.11576272      0.9997509306
      0.115855504      0.9997447554
     0.1159480365      0.9997384881
     0.1160403182      0.9997320549
        0.1161326      0.9997255138
      0.116224631      0.9997188578
     0.1163164119      0.9997120779
     0.1164081928      0.9997050956
     0.1164997236      0.9996980187
      0.116591005      0.9996908227
     0.1166822864      0.9996834768
     0.1167733184      0.9996759949
     0.1168641017      0.9996683761
      0.116954885      0.9996605328
     0.1170454195      0.9996525869
     0.1171359541      0.9996444874
     0.1172262399       0.999636243
     0.1173165258      0.9996278236
     0.1174065629      0.9996192501
        0.1174966      0.9996104232
     0.1175863884      0.9996014811
     0.1176761768      0.9995923667
     0.1177657165      0.9995830808
     0.1178550081      0.9995736317
     0.1179442998      0.9995639784
     0.1180333434       0.999554078
     0.1181221396      0.9995440547
     0.1182109359      0.9995338451
     0.1182994848      0.9995234526
     0.1183880338      0.9995128566
     0.1184763353      0.9995020658
     0.1185646369      0.9994910686
     0.1186526912       0.999479877
     0.1187407454      0.9994684736
     0.1188285523      0.9994568697
     0.1189163592      0.9994450355
     0.1190039187      0.9994330153
     0.1190914783      0.9994207646
     0.1191790378      0.9994082638
     0.1192663493      0.9993954427
     0.1193536609      0.9993823462
     0.1194409724      0.9993689849
     0.1195280351      0.9993554951
     0.1196150979      0.9993417692
     0.1197019119      0.9993278336
     0.1197887259      0.9993136264
     0.1198752911      0.9992990407
     0.1199618564      0.9992841197
     0.1200481729      0.9992689361
     0.1201344894      0.9992534546
     0.1202205572      0.9992377155
     0.1203066249      0.9992218117
     0.1203924439      0.9992056879
     0.1204782629       0.999189247
     0.1205640819      0.9991724835
     0.1206496515       0.999155319
     0.1207349722      0.9991378337
      0.120820293      0.9991201283
      0.120905365      0.9991021945
     0.1209904371      0.9990839409
     0.1210752604      0.9990654061
     0.1211600836      0.9990465288
     0.1212446582      0.9990273603
     0.1213289847      0.9990078986
     0.1214133112      0.9989880835
     0.1214973897      0.9989679711
     0.1215814682      0.9989474987
     0.1216652987      0.9989267239
     0.1217491292      0.9989055821
     0.1218329596      0.9988840469
     0.1219165414      0.9988621923
     0.1220001231      0.9988397683
     0.1220837048      0.9988170803
      0.122167037      0.9987938924
     0.1222503692      0.9987702601
     0.1223337015      0.9987462049
     0.1224170337      0.9987217082
     0.1225001149      0.9986968523
     0.1225831961      0.9986715608
     0.1226662774      0.9986458272
     0.1227493586      0.9986196427
     0.1228321873      0.9985930808
      0.122915016      0.9985660544
     0.1229978447      0.9985385548
     0.1230804201      0.9985106599
     0.1231629955      0.9984822784
     0.1232455709      0.9984534014
     0.1233278922      0.9984241123
     0.1234102135      0.9983943157
     0.1234925348      0.9983640049
     0.1235746013      0.9983332876
     0.1236566678      0.9983020707
     0.1237387342      0.9982703388
      0.123820545      0.9982381839
     0.1239023558      0.9982054973
     0.1239841666      0.9981722734
     0.1240659774      0.9981384992
     0.1241477882      0.9981041596
     0.1242293409      0.9980693421
     0.1243108936      0.9980339516
     0.1243924463      0.9979980352
     0.1244737402      0.9979616723
      0.124555034      0.9979247309
     0.1246360689      0.9978873175
     0.1247171038      0.9978493028
     0.1247981388      0.9978106207
      0.124878914      0.9977714179
     0.1249596892      0.9977315694
     0.1250404644      0.9976910652
      0.125120979      0.9976500263
     0.1252014936      0.9976083098
     0.1252820082      0.9975659024
     0.1253625229       0.997522791
     0.1254427752      0.9974791063
     0.1255230276       0.997434697
       0.12560328      0.9973895518
     0.1256835323      0.9973436596
     0.1257637847      0.9972970097
     0.1258437722      0.9972497498
     0.1259237597      0.9972017181
     0.1260037472      0.9971529056
     0.1260837348      0.9971033028
     0.1261634556      0.9970530685
     0.1262431765      0.9970021161
     0.1263226308      0.9969505551
      0.126402085      0.9968980984
     0.1264815393      0.9968447886
      0.126560726      0.9967908152
     0.1266399128      0.9967359977
      0.126718832      0.9966805199
     0.1267977512      0.9966241986
     0.1268764029      0.9965672258
     0.1269550546      0.9965094074
     0.1270337063      0.9964507388
     0.1271120895        0.99639142
     0.1271904728      0.9963312466
     0.1272685876       0.996270422
     0.1273467024      0.9962087331
     0.1274248172      0.9961461691
     0.1275026627      0.9960829375
     0.1275805082      0.9960188091
     0.1276580843      0.9959539962
     0.1277356603      0.9958882591
     0.1278132364      0.9958215781
     0.1278905422      0.9957541707
      0.127967848      0.9956857867
     0.1280451538      0.9956164068
     0.1281221884      0.9955462613
     0.1281992229      0.9954750931
     0.1282762575      0.9954028872
      0.128353292      0.9953296294
     0.1284300534       0.995255572
     0.1285068148      0.9951804451
     0.1285835762      0.9951042377
     0.1286603375      0.9950269391
     0.1287370989      0.9949485387
     0.1288135842      0.9948693141
     0.1288900694      0.9947889743
     0.1289665547       0.994707508
     0.1290430399      0.9946249033
     0.1291195252       0.994541148
     0.1291957313      0.9944565411
     0.1292719374      0.9943707663
     0.1293481435      0.9942838104
     0.1294243496        0.99419566
     0.1295002745      0.9941066336
     0.1295761995      0.9940163943
     0.1296521244      0.9939249283
     0.1297280493      0.9938322212
     0.1298036909      0.9937385919
     0.1298793325      0.9936436649
     0.1299549741      0.9935474154
     0.1300306157      0.9934498199
     0.1301062573      0.9933508541
     0.1301816124      0.9932508753
     0.1302569675       0.993149485
     0.1303323226      0.9930466559
     0.1304076777      0.9929423844
     0.1304830327      0.9928367015
      0.130558098      0.9927300218
     0.1306331633      0.9926219321
     0.1307082285      0.9925124201
     0.1307832938      0.9924014721
      0.130858359      0.9922890744
     0.1309331311      0.9921756599
     0.1310079031      0.9920607769
     0.1310826751      0.9919444086
     0.1311574472      0.9918265364
     0.1312319237      0.9917076141
     0.1313064002      0.9915871559
     0.1313808766      0.9914651367
     0.1314553531       0.991341529
     0.1315298296      0.9912163042
      0.131604007      0.9910899457
     0.1316781844      0.9909619246
     0.1317523618      0.9908322126
     0.1318265392      0.9907007832
     0.1319007166      0.9905676122
     0.1319745912      0.9904332323
     0.1320484658      0.9902970857
     0.1321223405      0.9901591573
     0.1321962151       0.990019435
     0.1322700897      0.9898779083
     0.1323436578      0.9897351671
     0.1324172259       0.989590621
      0.132490794      0.9894442636
     0.1325643621      0.9892960878