# Probe 0 (2.4 2.295 1.5)
#           Probe                 0
#            Time
    1.1999904e-06            101325
  2.639965056e-06            101325
  4.367944597e-06            101325
  6.441505713e-06            101325
   8.92973777e-06            101325
  1.191552707e-05            101325
  1.549838863e-05            101325
  1.979776087e-05            101325
  2.495674128e-05            101325
  3.114713435e-05            101325
  3.857523794e-05            101325
  4.748896225e-05            101325
  5.818543142e-05            101325
  7.102064463e-05            101325
  8.642131685e-05            101325
  0.0001049009832            101325
  0.0001270765827            101325
  0.0001536896689            101325
  0.0001856219625            101325
  0.0002239407148            101325
  0.0002699019884            101325
  0.0003250351347            101325
  0.0003911802278            101325
  0.0004705543394            101325
  0.0005658032734            101325
  0.0006799700095            101325
  0.0008169700928            101325
  0.0009814618316            101325
   0.001179117227            101325
   0.001416111804       101325.0001
   0.001666544217       101325.0009
   0.001916976631        101325.004
   0.002167409044        101325.014
   0.002417841458       101325.0419
   0.002668273871       101325.1099
   0.002918706284         101325.26
   0.003169138698       101325.5628
   0.003419571111       101326.1279
   0.003670003524       101327.1111
   0.003920435938       101328.7158
   0.004170868351       101331.1829
   0.004421300765        101334.767
   0.004671733178        101339.694
   0.004922165591       101346.1031
   0.005172598005       101353.9763
   0.005423030418       101363.0678
   0.005673462831       101372.8501
   0.005923895245       101382.5004
   0.006174327658       101390.9507
   0.006424760072       101397.0182
   0.006675192485       101399.6145
   0.006925624898       101397.9975
   0.007176057312       101392.0073
   0.007426489725        101382.319
   0.007676922139       101370.2052
   0.007927354552       101357.4956
   0.008177786965       101346.2572
   0.008428219379       101338.3995
   0.008678651792       101335.3225
   0.008929084205       101337.6714
   0.009179516619        101345.457
   0.009429949032       101358.0352
   0.009680381446       101374.1303
   0.009930813859       101392.0167
    0.01018124627       101409.7206
    0.01043167869       101425.1575
     0.0106821111       101436.2713
    0.01093254351       101441.2814
    0.01118297593       101439.0419
    0.01143340834       101429.4613
    0.01168384075       101413.6922
    0.01193427317       101393.8345
    0.01218470558        101372.697
    0.01243513799       101353.4006
    0.01268557041       101338.9324
    0.01293600282       101331.6483
    0.01318643523       101332.9365
    0.01343686765       101342.8624
    0.01368730006       101360.0844
    0.01393773247       101382.0926
    0.01418816489       101405.8493
     0.0144385973       101428.3909
    0.01468902971        101447.382
    0.01493946213       101461.4617
    0.01518989454       101470.3779
    0.01544032695       101474.8862
    0.01569075937       101476.2959
    0.01594119178       101476.0487
    0.01619162419       101475.2499
    0.01644205661       101474.4047
    0.01669248902       101473.4224
    0.01694292143       101471.7765
    0.01719335385       101468.7283
    0.01744378626       101463.6356
    0.01769421867       101456.1667
    0.01794465109       101446.5132
     0.0181950835       101435.4898
    0.01844551591       101424.4352
    0.01869594833        101414.951
    0.01894638074       101408.5577
    0.01919681315       101406.3632
    0.01944724557       101408.8173
    0.01969767798       101415.5621
    0.01994811039       101425.5414
    0.02019854281        101437.186
    0.02044897522       101448.7654
    0.02069940763       101458.9294
    0.02094984005       101466.9088
    0.02120027246       101472.6024
    0.02145070487       101476.4962
    0.02170113729       101479.4305
     0.0219515697        101482.287
    0.02220200211       101485.7295
    0.02245243453       101489.7558
    0.02270286694       101493.7096
    0.02295329935       101496.5519
    0.02320373177       101497.1697
    0.02345416418       101494.7515
    0.02370459659       101489.0663
    0.02395502901       101480.5798
    0.02420546142       101470.3937
    0.02445589384       101460.0912
    0.02470632625       101451.4929
    0.02495675866       101446.2637
    0.02520719108        101445.488
    0.02545762349       101449.5534
     0.0257080559       101458.1201
    0.02595848832       101470.2694
    0.02620892073       101484.7085
    0.02645935314       101499.9463
    0.02670978556       101514.4546
    0.02696021797       101526.8837
    0.02721065038       101536.2714
     0.0274610828       101542.0675
    0.02771151521       101544.0949
    0.02796194762       101542.3854
    0.02821238004       101537.1161
    0.02846281245       101528.5035
    0.02871324486       101516.8266
    0.02896367728       101502.5181
    0.02921410969       101486.2512
     0.0294645421       101469.0053
    0.02971497452       101452.0125
    0.02996540693       101436.6834
    0.03021583934       101424.4605
    0.03046627176       101416.6386
    0.03071670417       101414.2687
    0.03096713658         101418.09
      0.031217569       101428.3499
    0.03146800141       101444.7813
    0.03171843382       101466.4948
    0.03196886624       101491.9777
    0.03221929865       101519.2631
    0.03246973106       101546.1328
    0.03272016348       101570.4165
    0.03297059589       101590.1651
     0.0332210283       101603.7923
    0.03347146072        101610.285
    0.03372189313       101609.4041
    0.03397232554       101601.7546
    0.03422275796       101588.7719
    0.03447319037       101572.4699
    0.03472362278       101554.9687
     0.0349740552       101538.0817
    0.03522448761       101523.1641
    0.03547492002        101511.089
    0.03572535244        101502.191
    0.03597578485       101496.2284
    0.03622621726       101492.5228
    0.03647664968        101490.137
    0.03672708209       101488.2377
     0.0369775145       101486.3452
    0.03722794692       101484.4275
    0.03747837933        101482.856
    0.03772881174       101482.2539
    0.03797924416       101483.3014
    0.03822967657       101486.5309
    0.03848010898       101492.2158
     0.0387305414       101500.3184
    0.03898097381       101510.4686
    0.03923140622       101522.0078
    0.03948183864        101534.125
    0.03973227105       101546.0275
    0.03998270346       101557.0162
    0.04023313588       101566.5396
    0.04048356829       101574.1436
     0.0407340007       101579.3943
    0.04098443312       101581.9165
    0.04123486553       101581.4158
    0.04148529795       101577.7318
    0.04173573036       101570.9295
    0.04198616277       101561.3846
    0.04223659519       101549.8098
     0.0424870276       101537.2785
    0.04273746001       101525.1271
    0.04298789243       101514.7637
    0.04323832484       101507.4889
    0.04348875725       101504.3376
    0.04373918967       101505.9568
    0.04398962208         101512.49
    0.04424005449       101523.5049
    0.04449048691       101538.0192
    0.04474091932       101554.6059
    0.04499135173       101571.5394
    0.04524178415       101587.0412
    0.04549221656       101599.4736
    0.04574264897        101607.562
    0.04599308139       101610.5863
     0.0462435138       101608.4915
    0.04649394621       101601.7955
    0.04674437863        101591.472
    0.04699481104       101578.7811
    0.04724524345       101565.0594
    0.04749567587       101551.5284
    0.04774610828       101539.2803
    0.04799654069       101529.1931
    0.04824697311       101521.8475
    0.04849740552       101517.5211
    0.04874783793       101516.2545
    0.04899827035       101517.9558
    0.04924870276       101522.3342
    0.04949913517       101529.0819
    0.04974956759       101537.9255
             0.05       101548.5389
          0.05025       101560.5202
           0.0505       101573.5065
          0.05075       101587.0552
            0.051       101600.5945
          0.05125       101613.4231
           0.0515        101624.761
          0.05175       101633.8149
            0.052       101639.8418
          0.05225        101642.218
           0.0525       101640.5076
          0.05275        101634.541
            0.053       101624.4605
          0.05325       101610.7896
           0.0535       101594.4564
          0.05375       101576.7456
            0.054        101559.166
          0.05425       101543.2736
           0.0545          101530.5
          0.05475       101522.0203
            0.055       101518.6535
          0.05525       101520.8067
           0.0555       101528.3792
          0.05575       101540.8271
            0.056       101557.2439
          0.05625       101576.4189
           0.0565       101596.9025
          0.05675       101617.1122
            0.057       101635.5173
          0.05725       101650.8606
           0.0575       101662.3145
          0.05775       101669.5251
            0.058       101672.5689
          0.05825       101671.8606
           0.0585       101668.0395
          0.05875       101661.8562
            0.059       101654.1013
          0.05925       101645.5182
           0.0595       101636.7012
          0.05975       101628.1671
             0.06       101620.3334
          0.06025       101613.5296
           0.0605       101608.0277
          0.06075       101604.0423
            0.061       101601.7083
          0.06125       101601.0445
           0.0615       101601.9106
          0.06175       101604.0588
            0.062       101607.1881
          0.06225       101611.0257
           0.0625       101615.3919
          0.06275       101620.2275
            0.063       101625.5741
          0.06325       101631.5101
           0.0635       101638.0608
          0.06375       101645.1113
            0.064       101652.3637
          0.06425       101659.3416
           0.0645       101665.4391
          0.06475       101670.0318
            0.065       101672.6004
          0.06525        101672.872
           0.0655       101670.9361
          0.06575       101667.2847
            0.066       101662.7588
          0.06625       101658.3968
           0.0665       101655.2235
          0.06675       101654.0488
            0.067       101655.3335
          0.06725       101659.1537
           0.0675       101665.2547
          0.06775       101673.1721
            0.068       101682.3624
          0.06825       101692.2931
           0.0685       101702.4848
          0.06875       101712.5024
            0.069       101721.9056
          0.06925       101730.1942
           0.0695       101736.8086
          0.06975       101741.2026
             0.07       101742.9629
          0.07025       101741.9072
           0.0705       101738.1463
          0.07075       101732.1125
            0.071       101724.5237
          0.07125       101716.2821
           0.0715       101708.3407
          0.07175       101701.5129
            0.072       101696.3675
          0.07225       101693.1967
           0.0725       101692.0599
          0.07275       101692.8721
    0.07299772727       101695.4652
    0.07324545455       101699.7207
    0.07349090909       101705.4933
    0.07373636364       101712.7584
    0.07397954545       101721.3668
    0.07422272727       101731.2597
    0.07446363636       101742.1133
    0.07470454545       101753.6966
    0.07494318182       101765.4882
     0.0751795669       101777.0148
    0.07541372192       101787.7786
    0.07564787695       101797.3791
    0.07587980194       101805.2761
    0.07610951811       101811.1344
    0.07633923428       101814.7576
    0.07656674164       101815.9885
      0.076794249       101814.8663
    0.07701954756        101811.602
    0.07724484611       101806.5369
    0.07746793586       101800.2324
     0.0776910256        101793.246
    0.07791190653       101786.3076
    0.07813278747       101779.9957
    0.07835145959       101774.9356
    0.07857013172       101771.5181
    0.07878880384       101770.0472
    0.07900524462       101770.6453
     0.0792216854       101773.2789
    0.07943812618       101777.8198
    0.07965231236       101783.9786
    0.07986649855        101791.527
    0.08007843014       101800.0806
    0.08029036174        101809.435
    0.08050003874       101819.2318
    0.08070748514       101829.2426
    0.08091493153       101839.3747
    0.08112014732       101849.3298
    0.08132315649       101858.9237
    0.08152616566       101868.0675
    0.08172696821        101876.467
    0.08192777075       101884.0181
    0.08212636668       101890.4549
     0.0823249626       101895.6832
    0.08252135191        101899.509
    0.08271774121       101901.8773
     0.0829119239       101902.7193
    0.08310610658       101902.0693
    0.08329808264       101900.0335
     0.0834900587       101896.7637
    0.08367982814       101892.5467
    0.08386959758       101887.6544
    0.08405936702       101882.4522
    0.08424690388       101877.4039
    0.08443444074       101872.8604
     0.0846219776       101869.2214
    0.08480725498       101866.8595
    0.08499253236       101865.9901
    0.08517780973       101866.7971
    0.08536308711       101869.3346
    0.08554604852       101873.4755
    0.08572900993       101879.0789
    0.08591197135       101885.8949
    0.08609493276       101893.6125
    0.08627551805       101901.7795
    0.08645610333       101910.1412
    0.08663668862       101918.3512
    0.08681727391       101926.1013
    0.08699541886       101933.0579
    0.08717356381       101939.1566
    0.08735170875       101944.2793
    0.08752737947       101948.3122
    0.08770305018       101951.3266
    0.08787872089       101953.3723
     0.0880543916       101954.5187
    0.08822751636       101954.8661
    0.08840064112       101954.5366
    0.08857376588       101953.6374
    0.08874430669       101952.3212
    0.08891484749       101950.7379
     0.0890853883       101949.0757
    0.08925592911       101947.5329
    0.08942380522         101946.32
    0.08959168133        101945.587
    0.08975955743        101945.493
    0.08992743354       101946.1751
    0.09009255758       101947.7092
    0.09025768162       101950.1734
    0.09042280566       101953.6033
     0.0905879297       101957.9959
    0.09075020678       101963.2188
    0.09091248385       101969.2929
    0.09107476092       101976.1713
      0.091237038       101983.8126
    0.09139636458       101992.0158
    0.09155569116       102000.8536
    0.09171501774       102010.2284
    0.09187434433       102019.9905
    0.09203367091       102029.9291
    0.09219299749        102039.776
    0.09234913754       102049.0407
    0.09250527759       102057.6112
    0.09266141764       102065.1848
    0.09281755769       102071.4982
    0.09297369774       102076.3524
    0.09312983779       102079.6368
    0.09328250806       102081.3185
    0.09343517833       102081.5661
     0.0935878486       102080.5415
    0.09374051888       102078.4747
    0.09389318915       102075.6417
    0.09404585942       102072.3362
    0.09419852969       102068.8387
    0.09434728534       102065.4725
    0.09449604099       102062.3144
    0.09464479664       102059.4688
    0.09479355229       102056.9832
    0.09494230793       102054.8637
    0.09509106358       102053.0956
    0.09523544407       102051.7007
    0.09537982455       102050.6188
    0.09552420503       102049.8647
    0.09566858552       102049.4722
      0.095812966        102049.491
    0.09595734648       102049.9805
    0.09610172696       102051.0015
    0.09624610745       102052.6104
    0.09639048793       102054.8536
    0.09653486841       102057.7623
    0.09667347368       102061.1985
    0.09681207894       102065.2625
     0.0969506842       102069.9212
    0.09708928947       102075.1052
    0.09722789473        102080.708
    0.09736649999       102086.5835
    0.09750510526       102092.5575
    0.09764371052       102098.4419
    0.09778231578       102104.0562
    0.09792092105       102109.2544
    0.09805952631       102113.9487
    0.09819813157        102118.122
    0.09833673684       102121.8302
     0.0984753421       102125.1949
    0.09861394736       102128.3911
    0.09875255263       102131.6242
    0.09889115789       102135.0939
    0.09902976316       102138.9637
    0.09916836842       102143.3293
    0.09930697368       102148.1975
    0.09944557895       102153.4747
    0.09958418421       102158.9717
    0.09972278947       102164.4247
    0.09986139474       102169.5304
              0.1       102173.9895
     0.1001319261       102177.4025
     0.1002635042       102179.8359
      0.100394735       102181.2157
     0.1005256196       102181.5475
     0.1006561589       102180.9077
     0.1007863537       102179.4288
      0.100916205        102177.281
     0.1010457137       102174.6504
     0.1011748807       102171.7244
     0.1013040477       102168.6717
     0.1014328729       102165.6601
     0.1015613574       102162.8281
      0.101689502       102160.2927
     0.1018173075       102158.1584
      0.101944775       102156.5293
     0.1020719052       102155.5171
     0.1021986991       102155.2432
     0.1023251576       102155.8335
     0.1024512815       102157.4061
     0.1025770717       102160.0547
     0.1027025292       102163.8291
     0.1028276548       102168.7173
     0.1029524494       102174.6318
     0.1030769138        102181.406
     0.1032010489       102188.8023
     0.1033248557       102196.5321
     0.1034480091       102204.2594
     0.1035708376       102211.6905
      0.103693342       102218.5408
     0.1038155231       102224.5831
     0.1039373819       102229.6707
     0.1040589191       102233.7596
     0.1041801357       102236.9029
     0.1043010325       102239.2392
     0.1044216102       102240.9696
      0.104542188       102242.3327
     0.1046624467       102243.5625
     0.1047823873       102244.8719
     0.1049020106       102246.4255
     0.1050213175       102248.3251
     0.1051403087       102250.6044
     0.1052589852       102253.2305
     0.1053773476       102256.1118
      0.105495397       102259.1146
      0.105613134       102262.0836
     0.1057305596       102264.8623
     0.1058476745       102267.3114
     0.1059644796        102269.321
     0.1060809757        102270.819
     0.1061971636       102271.7766
     0.1063133515       102272.2111
     0.1064292312         102272.18
     0.1065448035       102271.7798
     0.1066600693       102271.1324
     0.1067750293       102270.3735
     0.1068896844       102269.6436
     0.1070040354        102269.078
      0.107118083       102268.7975
     0.1072318282       102268.9001
     0.1073452716       102269.4549
     0.1074584141       102270.5011
     0.1075715566       102272.0566
     0.1076843982       102274.1084
     0.1077969397       102276.6257
     0.1079091819       102279.5636
     0.1080214241       102282.8778
      0.108133367       102286.5046
     0.1082450113       102290.3901
      0.108356358        102294.487
     0.1084674077       102298.7581
     0.1085784574       102303.1909
     0.1086892102       102307.7605
     0.1087996668       102312.4585
     0.1089098281       102317.2709
     0.1090196949       102322.1656
     0.1091292679       102327.0791
     0.1092388409        102331.922
     0.1093481202       102336.5405
     0.1094571064       102340.7662
     0.1095660927       102344.4296
      0.109674786        102347.351
     0.1097831871       102349.3954
     0.1098915882       102350.4787
     0.1099996972       102350.5677
     0.1101075147       102349.6997
     0.1102150416       102347.9747
     0.1103222787       102345.5483
     0.1104292267       102342.6191
     0.1105358865       102339.4106
     0.1106425463       102336.1402
     0.1107489178        102333.021
     0.1108550018       102330.2225
     0.1109607991       102327.8629
     0.1110665964       102325.9878
     0.1111721069       102324.5895
     0.1112776175       102323.6004
     0.1113828414       102322.9279
     0.1114880652       102322.4651
     0.1115930024        102322.109
     0.1116976536       102321.7685
     0.1118023048       102321.3793
     0.1119066701       102320.9186
     0.1120110354       102320.4043
     0.1121151148       102319.8948
     0.1122191941       102319.4718
     0.1123229875       102319.2308
     0.1124264958       102319.2617
     0.1125300041         102319.64
     0.1126332272       102320.4164
     0.1127364504       102321.6177
     0.1128393883       102323.2416
      0.112942042       102325.2709
     0.1130446956       102327.6896
     0.1131470648       102330.4756
     0.1132491505       102333.6268
     0.1133512362       102337.1734
     0.1134530384       102341.1519
     0.1135548405       102345.6413
      0.113656359       102350.7117
     0.1137578776       102356.4627
     0.1138591126       102362.9532
     0.1139603475        102370.251
     0.1140612989       102378.3471
     0.1141619676       102387.2004
     0.1142626362       102396.7433
     0.1143630221       102406.8029
     0.1144631259       102417.1832
     0.1145629486       102427.6534
     0.1146627713       102437.9922
     0.1147623128       102447.9173
     0.1148615739       102457.1941
      0.114960835       102465.6441
     0.1150598156       102473.0836
     0.1151585167       102479.4069
     0.1152572178       102484.5705
     0.1153556393       102488.5437
     0.1154540608       102491.3627
     0.1155522026       102493.0793
     0.1156500657       102493.7869
     0.1157479288       102493.5968
      0.115845513       102492.6296
     0.1159428193       102491.0081
     0.1160398483       102488.8454
     0.1161366008       102486.2361
     0.1162333534       102483.2431
     0.1163298295         102479.92
       0.11642603       102476.2889
     0.1165222305       102472.3399
     0.1166181553       102468.0735
     0.1167140802       102463.4655
     0.1168097294       102458.5287
     0.1169053786       102453.2721
     0.1170007521       102447.7672
     0.1170961257       102442.0919
     0.1171912236       102436.3903
     0.1172863215       102430.8001
     0.1173811437       102425.5058
     0.1174756911       102420.6767
     0.1175702386        102416.461
     0.1176645111       102413.0158
     0.1177585096       102410.4493
     0.1178525081        102408.832
     0.1179462326       102408.2055
     0.1180399571       102408.5571
     0.1181334075       102409.8244
     0.1182265847       102411.8934
     0.1183197618        102414.618
      0.118412939       102417.8192
     0.1185058421       102421.2945
     0.1185987452        102424.868
     0.1186913743       102428.3695
     0.1187840034        102431.688
     0.1188766325       102434.7467
     0.1189689867       102437.5076
     0.1190613409       102439.9948
     0.1191534202       102442.2575
     0.1192454996        102444.394
      0.119337304       102446.5141
     0.1194291085       102448.7536
     0.1195206381       102451.2351
     0.1196121677       102454.0837
     0.1197034225       102457.3862
     0.1197946772       102461.2189
     0.1198856571        102465.601
      0.119976637       102470.5389
      0.120067342       102475.9733
     0.1201580471       102481.8423
     0.1202484772       102488.0234
     0.1203389074       102494.4132
     0.1204290627       102500.8641
      0.120519218       102507.2716
     0.1206090984       102513.5068
     0.1206989788       102519.4999
     0.1207885844       102525.1689
       0.12087819       102530.4917
     0.1209675207       102535.4309
     0.1210568514       102539.9912
     0.1211459072       102544.1492
     0.1212349631       102547.9028
     0.1213237441       102551.2175
      0.121412525       102554.0749
     0.1215010312       102556.4369
     0.1215895373       102558.2838
     0.1216777685       102559.5861
     0.1217659998       102560.3231
     0.1218539562       102560.4656
     0.1219419125       102559.9788
     0.1220295941       102558.8248
     0.1221172756       102556.9627
     0.1222046822       102554.3736
     0.1222920889       102551.0478
     0.1223792207       102547.0267
     0.1224663525       102542.3658
     0.1225534843       102537.1677
     0.1226403404       102531.5846
     0.1227271964       102525.7549
     0.1228140525       102519.8424
     0.1229006319       102514.0282
     0.1229872114       102508.4439
     0.1230737908       102503.2368
     0.1231603703       102498.5369
     0.1232469497       102494.4499
     0.1233332499       102491.0625
     0.1234195501       102488.4098
     0.1235058502       102486.5176
     0.1235921504       102485.3875
     0.1236781694       102484.9945
     0.1237641885       102485.2821
     0.1238502075       102486.1752
     0.1239362266       102487.5827
     0.1240219627       102489.4004
     0.1241076988       102491.5373
     0.1241934349       102493.9066
      0.124279171       102496.4331
     0.1243646222       102499.0446
     0.1244500735       102501.6962
     0.1245355248        102504.344
      0.124620976       102506.9539
     0.1247061405       102509.4952
      0.124791305       102511.9712
     0.1248764696       102514.3979
     0.1249613463       102516.8085
     0.1250462231         102519.28
     0.1251308122       102521.8979
     0.1252154013       102524.7833
     0.1252999904       102528.0577
     0.1253842907       102531.8233
     0.1254685911       102536.1849
     0.1255526028       102541.1857
     0.1256366145       102546.8589
     0.1257206261       102553.1796
     0.1258046378       102560.0805
     0.1258883588       102567.4317
     0.1259720798       102575.1241
     0.1260558007       102582.9819
     0.1261395217       102590.8493
       0.12622295       102598.5236
     0.1263063782        102605.849
     0.1263898065       102612.6441
     0.1264732347       102618.7381
     0.1265563681       102623.9641
     0.1266395016        102628.226
     0.1267223402       102631.4335
     0.1268051789       102633.5664
     0.1268880175        102634.633
     0.1269705603       102634.6855
     0.1270531031       102633.8174
     0.1271353501       102632.1539
      0.127217597       102629.8318
     0.1272995481       102627.0139
     0.1273814992       102623.8473
     0.1274634503       102620.4823
     0.1275451044       102617.0694
     0.1276267586       102613.7168
     0.1277084128       102610.5255
     0.1277900669        102607.576
      0.127871422       102604.9373
     0.1279527771        102602.637
     0.1280341321        102600.692
      0.128115187       102599.1017
     0.1281962419       102597.8286
     0.1282772967       102596.8201
     0.1283580503       102596.0066
     0.1284388038        102595.299
      0.128519256       102594.6127
     0.1285997083       102593.8674
     0.1286801605       102593.0077
     0.1287603103       102592.0138
       0.12884046       102590.8955
     0.1289206098       102589.6998
      0.129000456       102588.5053
     0.1290803022       102587.3944
     0.1291601483       102586.4526
     0.1292396897       102585.7507
     0.1293192312        102585.325
     0.1293987726       102585.1814
     0.1294780081       102585.2895
     0.1295572436       102585.5871
     0.1296364791       102585.9889
     0.1297157145        102586.394
       0.12979495       102586.6962
      0.129873876       102586.7939
      0.129952802       102586.5997
      0.130031728       102586.0458
     0.1301106539        102585.092
     0.1301895799       102583.7312
     0.1302685059       102581.9913
     0.1303471174       102579.9416
      0.130425729       102577.6794
     0.1305043405       102575.3245
      0.130582952       102573.0254
     0.1306615635       102570.9461
     0.1307398568        102569.261
     0.1308181501       102568.1221
     0.1308964433       102567.6753
     0.1309747366       102568.0406
      0.131052709       102569.2956
     0.1311306814       102571.4814
     0.1312086538       102574.5968
     0.1312866262       102578.6002
     0.1313645986       102583.4167
     0.1314422461       102588.9194
     0.1315198936        102595.004
     0.1315975411       102601.5323
     0.1316751886       102608.3581
     0.1317528361       102615.3397
     0.1318304836       102622.3539
     0.1319081311       102629.3094
     0.1319854468       102636.1268
     0.1320627625       102642.8724
     0.1321400781       102649.4538
     0.1322173938       102655.8191
     0.1322947095       102661.9771
      0.132371689       102667.9367
     0.1324486685       102673.7404
     0.1325256481       102679.3573
     0.1326026276       102684.7068
     0.1326796071       102689.6642
      0.132756246       102694.1092
     0.1328328849       102697.9636
     0.1329095238       102701.1063
     0.1329861627       102703.3985
      0.133062458       102704.6988
     0.1331387532       102704.9034
     0.1332150484       102703.9317
     0.1332913437       102701.7442
     0.1333676389        102698.343
     0.1334435858        102693.792
     0.1335195326       102688.1524
     0.1335954795       102681.5279
     0.1336714263        102674.053
     0.1337473732       102665.8967
       0.13382332       102657.2656
      0.133898912       102648.4715
      0.133974504       102639.6794
     0.1340500959       102631.1047
     0.1341256879       102622.9732
     0.1342012799       102615.4985
     0.1342768718         102608.86
     0.1343521021       102603.2178
     0.1344273324       102598.6303
     0.1345025626       102595.1527
     0.1345777929       102592.8055