# Probe 0 (0.4 0.005 1.4)
# Probe 1 (0.9 0.005 1.4)
# Probe 2 (1.4 0.005 1.4)
# Probe 3 (1.9 0.005 1.4)
# Probe 4 (2.4 0.005 1.4)
# Probe 5 (2.9 0.005 1.4)
# Probe 6 (3.4 0.005 1.4)
# Probe 7 (3.9 0.005 1.4)
# Probe 8 (4.4 0.005 1.4)
# Probe 9 (4.9 0.005 1.4)
# Probe 10 (5.4 0.005 1.4)
# Probe 11 (5.9 0.005 1.4)
# Probe 12 (6.4 0.005 1.4)
# Probe 13 (6.9 0.005 1.4)
# Probe 14 (7.4 0.005 1.4)
# Probe 15 (7.9 0.005 1.4)
# Probe 16 (8.4 0.005 1.4)
#           Probe                 0                 1                 2                 3                 4                 5                 6                 7                 8                 9                10                11                12                13                14                15                16
#            Time
    1.1999904e-06            293.15            293.15            293.15       293.1500001       293.1647296            293.15            293.15            293.15            293.15            293.15            293.15            293.15            293.15            293.15            293.15            293.15            293.15
  2.639965056e-06            293.15            293.15            293.15       293.1500002       293.1824068            293.15            293.15            293.15       293.1499999            293.15            293.15            293.15            293.15            293.15            293.15            293.15            293.15
  4.367944597e-06            293.15            293.15            293.15       293.1500005       293.2036229            293.15            293.15            293.15       293.1499999            293.15            293.15            293.15            293.15            293.15            293.15            293.15            293.15
  6.441505713e-06            293.15            293.15            293.15       293.1500012       293.2290875       293.1500001            293.15            293.15       293.1499998       293.1499999            293.15            293.15            293.15            293.15            293.15            293.15            293.15
   8.92973777e-06            293.15            293.15            293.15       293.1500023       293.2596526       293.1500003            293.15            293.15       293.1499998       293.1499999            293.15            293.15            293.15            293.15            293.15            293.15            293.15
  1.191552707e-05            293.15            293.15            293.15       293.1500042       293.2963408       293.1500006            293.15            293.15       293.1499997       293.1499999            293.15            293.15            293.15            293.15            293.15            293.15            293.15
  1.549838863e-05            293.15            293.15            293.15       293.1500075       293.3403815       293.1500013            293.15            293.15       293.1499996       293.1499998            293.15            293.15            293.15            293.15            293.15            293.15            293.15
  1.979776087e-05            293.15            293.15            293.15       293.1500131       293.3932502       293.1500026            293.15            293.15       293.1499995       293.1499998            293.15            293.15            293.15            293.15            293.15            293.15            293.15
  2.495674128e-05            293.15            293.15            293.15       293.1500225       293.4567186       293.1500052            293.15            293.15       293.1499994       293.1499997            293.15            293.15            293.15            293.15            293.15            293.15            293.15
  3.114713435e-05            293.15            293.15            293.15       293.1500382       293.5329151       293.1500101            293.15            293.15       293.1499992       293.1499997            293.15            293.15            293.15            293.15            293.15            293.15            293.15
  3.857523794e-05            293.15            293.15            293.15       293.1500643       293.6243965       293.1500191            293.15            293.15        293.149999       293.1499996            293.15            293.15            293.15            293.15            293.15            293.15            293.15
  4.748896225e-05            293.15            293.15            293.15        293.150108       293.7342352       293.1500356            293.15            293.15       293.1499988       293.1499995            293.15            293.15            293.15            293.15            293.15            293.15            293.15
  5.818543142e-05            293.15            293.15            293.15       293.1501813         293.86611       293.1500654            293.15            293.15       293.1499986       293.1499994            293.15            293.15            293.15            293.15            293.15            293.15            293.15
  7.102064463e-05            293.15            293.15            293.15       293.1503045       294.0244181       293.1501188            293.15            293.15       293.1499982       293.1499992            293.15            293.15            293.15            293.15            293.15            293.15            293.15
  8.642131685e-05            293.15            293.15       293.1500001        293.150512       294.2144043       293.1502139            293.15            293.15       293.1499979        293.149999            293.15            293.15            293.15            293.15            293.15            293.15            293.15
  0.0001049009832            293.15            293.15       293.1500002       293.1508627       294.4423272        293.150382       293.1500001            293.15       293.1499974       293.1499988            293.15            293.15            293.15            293.15            293.15            293.15            293.15
  0.0001270765827            293.15            293.15       293.1500004       293.1514564       294.7155994       293.1506775       293.1500002            293.15       293.1499969       293.1499986            293.15            293.15            293.15            293.15            293.15            293.15            293.15
  0.0001536896689            293.15            293.15       293.1500011       293.1524632       295.0429309       293.1511943       293.1500004            293.15       293.1499962       293.1499983            293.15            293.15            293.15            293.15            293.15            293.15            293.15
  0.0001856219625            293.15            293.15       293.1500029       293.1541707       295.4343086       293.1520929       293.1500011            293.15       293.1499954       293.1499979            293.15            293.15            293.15            293.15            293.15            293.15            293.15
  0.0002239407148            293.15            293.15       293.1500074       293.1570626        295.901185       293.1536453       293.1500028            293.15       293.1499945       293.1499974            293.15            293.15            293.15            293.15            293.15            293.15            293.15
  0.0002699019884            293.15            293.15       293.1500187       293.1619392       296.4558996        293.156305        293.150007            293.15       293.1499934       293.1499969            293.15            293.15            293.15            293.15            293.15            293.15            293.15
  0.0003250351347            293.15       293.1500001       293.1500466       293.1701035       297.1117137       293.1608157       293.1500176            293.15        293.149992       293.1499962            293.15            293.15            293.15            293.15            293.15            293.15            293.15
  0.0003911802278            293.15       293.1500002       293.1501153        293.183606       297.8817526       293.1683607       293.1500439            293.15       293.1499904       293.1499953            293.15            293.15            293.15            293.15            293.15            293.15            293.15
  0.0004705543394            293.15       293.1500007       293.1502816       293.2055054       298.7777504       293.1807404       293.1501086            293.15       293.1499885       293.1499943            293.15            293.15            293.15            293.15            293.15            293.15            293.15
  0.0005658032734            293.15       293.1500023       293.1506773       293.2399499        299.808466       293.2004934       293.1502653            293.15       293.1499862       293.1499928            293.15            293.15            293.15            293.15            293.15            293.15            293.15
  0.0006799700095            293.15       293.1500081       293.1515938       293.2915683       300.9786062       293.2307147       293.1506379       293.1500004       293.1499835        293.149991       293.1499999            293.15            293.15            293.15            293.15            293.15            293.15
  0.0008169700928            293.15       293.1500274       293.1536432       293.3636371       302.2976688       293.2742781       293.1515013       293.1500021       293.1499804       293.1499885       293.1499998            293.15            293.15            293.15            293.15            293.15            293.15
  0.0009814618316       293.1500003       293.1500902       293.1580047       293.4536791       303.7933002       293.3315338       293.1534282       293.1500101       293.1499768       293.1499852       293.1499996            293.15            293.15            293.15            293.15            293.15            293.15
   0.001179117227       293.1500013       293.1502851        293.166655       293.5473816       305.5471322       293.3962573       293.1574972       293.1500441        293.149973       293.1499808       293.1499991            293.15            293.15            293.15            293.15            293.15            293.15
   0.001416111804       293.1500067       293.1508508       293.1821105       293.6156365       307.7358589       293.4510963       293.1653839       293.1501748       293.1499703       293.1499749       293.1499981       293.1499999            293.15            293.15            293.15            293.15            293.15
   0.001666544217       293.1500258       293.1521105       293.2031447       293.6292583       310.2837191       293.4699902       293.1772198       293.1505398       293.1499738        293.149968       293.1499963       293.1499999            293.15            293.15            293.15            293.15            293.15
   0.001916976631       293.1500776       293.1543644       293.2259604       293.6053523       313.0942726       293.4484187       293.1916448       293.1513256       293.1499932       293.1499606       293.1499935       293.1499996            293.15            293.15            293.15            293.15            293.15
   0.002167409044       293.1501965       293.1578797       293.2463408       293.5757735       316.1222639       293.3976428       293.2066897        293.152769       293.1500478       293.1499533       293.1499896       293.1499992            293.15            293.15            293.15            293.15            293.15
   0.002417841458       293.1504383       293.1627727       293.2601856       293.5641067       319.3225137       293.3355569       293.2198592       293.1551116       293.1501704       293.1499472       293.1499842       293.1499985            293.15            293.15            293.15            293.15            293.15
   0.002668273871       293.1508832       293.1689278       293.2648653       293.5835257       322.6715147       293.2790498       293.2288049       293.1585363       293.1504117       293.1499451       293.1499772       293.1499974       293.1499999            293.15            293.15            293.15            293.15
   0.002918706284       293.1516355       293.1759631       293.2600133       293.6342511       326.1563916       293.2377528       293.2319819       293.1630982       293.1508408       293.1499525       293.1499687       293.1499955       293.1499998            293.15            293.15            293.15            293.15
   0.003169138698       293.1528178       293.1832567       293.2474349       293.7098409       329.7692791       293.2138656        293.229031       293.1686675       293.1515444       293.1499777       293.1499592       293.1499927       293.1499996            293.15            293.15            293.15            293.15
   0.003419571111       293.1545592       293.1900233        293.230276       293.8049856       333.5007942       293.2068643        293.220752       293.1749072       293.1526203       293.1500342       293.1499498       293.1499887       293.1499992            293.15            293.15            293.15            293.15
   0.003670003524       293.1569774       293.1954384       293.2120601       293.9157128       337.3395229       293.2138945       293.2088057       293.1812844       293.1541644       293.1501417       293.1499426       293.1499832       293.1499985       293.1499999            293.15            293.15            293.15
   0.003920435938       293.1601563       293.1987905       293.1959573       294.0386869       341.2811836       293.2305116        293.195262       293.1871158       293.1562542       293.1503279       293.1499414       293.1499762       293.1499974       293.1499998            293.15            293.15            293.15
   0.004170868351       293.1641212       293.1996107       293.1840154       294.1698036       345.3331017       293.2517545       293.1820428       293.1916604       293.1589279       293.1506287       293.1499516        293.149968       293.1499957       293.1499997            293.15            293.15            293.15
   0.004421300765       293.1688138       293.1977538       293.1768877       294.3052459       349.5101817       293.2731688       293.1706411       293.1942486       293.1621625       293.1510895       293.1499793       293.1499592       293.1499932       293.1499994            293.15            293.15            293.15
   0.004671733178       293.1740724       293.1934282       293.1743504       294.4427948       353.8266068       293.2913323        293.162048       293.1944095       293.1658531       293.1517619       293.1500339       293.1499513       293.1499896       293.1499989       293.1499999            293.15            293.15
   0.004922165591       293.1796258       293.1871892       293.1754699       294.5826408        358.291377       293.3046327       293.1566192       293.1919735       293.1697991       293.1526998       293.1501277       293.1499466       293.1499849       293.1499982       293.1499999            293.15            293.15
   0.005172598005       293.1851006       293.1799024       293.1787852       294.7267815       362.9108053       293.3113332       293.1540547        293.187135       293.1737014       293.1539535       293.1502767       293.1499484       293.1499791       293.1499971       293.1499998            293.15            293.15
   0.005423030418       293.1900543       293.1725625       293.1827843       294.8779054       367.6871675       293.3126757       293.1536005       293.1804453       293.1771845       293.1555606       293.1505031       293.1499607       293.1499723       293.1499956       293.1499997            293.15            293.15
   0.005673462831       293.1940345       293.1660333       293.1864588       295.0384903        372.618676       293.3133453       293.1544114       293.1727298       293.1798405       293.1575345        293.150834       293.1499887       293.1499653       293.1499933       293.1499994            293.15            293.15
   0.005923895245       293.1966559       293.1609512       293.1894936        295.210232       377.7050482       293.3160177       293.1558365       293.1649457       293.1812944        293.159852       293.1513012       293.1500383       293.1499592       293.1499904        293.149999       293.1499999            293.15
   0.006174327658       293.1976724       293.1577201       293.1921252       295.3938117       382.9474202       293.3216869         293.15756       293.1579809       293.1812781       293.1624414       293.1519396       293.1501169       293.1499559       293.1499867       293.1499984       293.1499999            293.15
   0.006424760072       293.1970258       293.1565255       293.1948789       295.5890289       388.3484798       293.3301327       293.1595953       293.1524994       293.1796956       293.1651749       293.1527852        293.150235       293.1499578       293.1499823       293.1499975       293.1499998            293.15
   0.006675192485       293.1948579       293.1573712       293.1983038       295.7952499        393.912012       293.3405608        293.162155       293.1488996       293.1766607       293.1678689       293.1538701        293.150406       293.1499681       293.1499776       293.1499963       293.1499996            293.15
   0.006925624898       293.1914818       293.1601462       293.2027792       296.0119499       399.6419539       293.3521787       293.1654835       293.1473379       293.1724997       293.1702975       293.1552168       293.1506469       293.1499899        293.149973       293.1499946       293.1499994            293.15
   0.007176057312       293.1873613       293.1646657       293.2084221       296.2390216       405.5412976       293.3648881       293.1697343       293.1477432       293.1677234       293.1722195       293.1568305       293.1509782       293.1500271       293.1499696       293.1499924        293.149999       293.1499999
   0.007426489725       293.1830168       293.1706837       293.2150962       296.4766599       411.6025775       293.3874877       293.1749061       293.1498934       293.1629547       293.1734164       293.1586915       293.1514232       293.1500845       293.1499687       293.1499897       293.1499985       293.1499999
   0.007676922139       293.1789163       293.1779619       293.2224895       296.7252202       417.8360571       293.4133699       293.1808356       293.1535762        293.158838       293.1737349       293.1607493       293.1520073       293.1501687       293.1499722       293.1499865       293.1499978       293.1499998
   0.007927354552       293.1754864       293.1862004       293.2302189       296.9850395       424.2469078       293.4403011       293.1872638       293.1585871       293.1559602       293.1731261       293.1629177       293.1527558       293.1502883       293.1499821        293.149983       293.1499968       293.1499997
   0.008177786965       293.1731259        293.195041       293.2378893       297.2565835       430.8388222        293.467805       293.1938362       293.1646677       293.1547776       293.1716719       293.1650778       293.1536911       293.1504551       293.1500009       293.1499797       293.1499955       293.1499995
   0.008428219379       293.1722375       293.2039585        293.245061       297.5397864       437.6121888       293.4959823       293.2000485        293.171465       293.1555522       293.1695963       293.1670856       293.1548278       293.1506832       293.1500317       293.1499771       293.1499938       293.1499993
   0.008678651792       293.1731786       293.2122957       293.2512984       297.8348688       444.5696886       293.5250605       293.2053091       293.1785844       293.1583398       293.1672465       293.1687927       293.1561694       293.1509897        293.150078       293.1499764       293.1499918       293.1499989
   0.008929084205       293.1761736       293.2193644       293.2561925       298.1419884        451.714681       293.5551156       293.2090649       293.1855691           293.163         293.16506       293.1700686       293.1577037       293.1513941       293.1501446       293.1499787       293.1499894       293.1499983
   0.009179516619        293.181352       293.2245264       293.2593527       298.4614076       459.0513656       293.5860872       293.2108603       293.1918948       293.1692129       293.1635053       293.1708289       293.1593988       293.1519176       293.1502384       293.1499857        293.149987       293.1499976
   0.009429949032       293.1885191       293.2273559       293.2604866       298.7936091       466.5845744       293.6179137       293.2104787       293.1970099       293.1764984       293.1630061       293.1710581        293.161202       293.1525814       293.1503678       293.1499994       293.1499848       293.1499966
   0.009680381446       293.1971575       293.2276598       293.2594941       299.1393316       474.3197143       293.6506878       293.2079875       293.2004092       293.1842396       293.1638699       293.1708235       293.1630415        293.153405       293.1505434       293.1500214       293.1499832       293.1499954
   0.009930813859       293.2064701       293.2255225         293.25652       299.4998232       482.2628162       293.6847575       293.2037251       293.2017127       293.1917159       293.1662371       293.1702751        293.164832       293.1544026        293.150778       293.1500546       293.1499831       293.1499939
    0.01018124627       293.2154604       293.2213786       293.2519749       299.8760213       490.4206669       293.7207437       293.1982602       293.2008212       293.1981576       293.1700416       293.1696362       293.1664843        293.155581       293.1510864       293.1501024       293.1499855       293.1499921
    0.01043167869       293.2230447       293.2159407       293.2465073       300.2691114       498.8006917       293.7594853       293.1923286       293.1978942       293.2028299       293.1749843       293.1691732       293.1679177       293.1569357       293.1514848       293.1501696       293.1499914       293.1499902
     0.0106821111       293.2281832       293.2100932       293.2409298       300.6803734       507.4085095       293.8019317       293.1867487        293.193365       293.2051354        293.180541       293.1691481       293.1690739       293.1584485       293.1519903       293.1502628       293.1500023       293.1499884
    0.01093254351       293.2300384       293.2047716       293.2361169       301.1110644       516.2490438       293.8490069       293.1823284       293.1878911       293.2047125       293.1860145       293.1697646       293.1699262       293.1600858       293.1526198         293.15039       293.1500196       293.1499869
    0.01118297593       293.2281061       293.2008227       293.2328891          301.5623       525.3272843       293.9014746       293.1797714       293.1822672       293.2015108       293.1906211       293.1711165       293.1704873       293.1617981       293.1533878       293.1505608       293.1500454       293.1499863
    0.01143340834       293.2223717       293.1988742       293.2318997       302.0349691       534.6481183        293.959839       293.1795878       293.1773081       293.1958799        293.193597       293.1731481       293.1708083        293.163522       293.1543051       293.1507866       293.1500826       293.1499874
    0.01168384075        293.213423       293.1992337        293.233549       302.5292724       544.2161627       294.0242999       293.1820204        293.173725       293.1885209       293.1943518       293.1756433       293.1709697       293.1651844       293.1553763       293.1510804        293.150135       293.1499909
    0.01193427317       293.2025893       293.2018366       293.2378985       303.0460637       554.0357006       294.0947603       293.1869968        293.172019       293.1803952       293.1925587       293.1782335        293.171063       293.1667094       293.1565977       293.1514563       293.1502079       293.1499982
    0.01218470558       293.1914428       293.2063118       293.2446405        303.585696       564.1100497       294.1708291       293.1941202         293.17241       293.1725999       293.1882347       293.1804425       293.1711673       293.1680256       293.1579545       293.1519291       293.1503073       293.1500102
    0.01243513799       293.1816594       293.2120533       293.2531514       304.1486434       574.4435885       294.2520543        293.202731       293.1748079       293.1662093       293.1817793       293.1817644       293.1713257       293.1690739         293.15942       293.1525135       293.1504409       293.1500281
    0.01268557041       293.1749007       293.2183354       293.2625943        304.735321         585.04012       294.3379068       293.2120162       293.1788331       293.1621199       293.1739614       293.1817576       293.1715245       293.1698129       293.1609545       293.1532225       293.1506176        293.150054
    0.01293600282       293.1724996       293.2244688       293.2720551       305.3462399       595.9031061       294.4278893       293.2211536       293.1839704       293.1609265       293.1658595       293.1801381       293.1716834       293.1702207       293.1625051        293.154066       293.1508475       293.1500909
    0.01318643523       293.1752245       293.2299535        293.280675       305.9820886       607.0356539       294.5216142       293.2294311       293.1897072       293.1628566       293.1586766       293.1768541       293.1716612       293.1702938        293.164008       293.1550484       293.1511419       293.1501427
    0.01343686765       293.1831495       293.2345742       293.2877742       306.6437453       618.4401624       294.6188489       293.2363448       293.1956298       293.1677633        293.153584       293.1721379       293.1712828       293.1700429        293.165392       293.1561671       293.1515132       293.1502142
    0.01368730006       293.1955577       293.2384413        293.292943       307.3322294       630.1170479       294.7195282       293.2416645       293.2014609       293.1752054       293.1515253       293.1665044       293.1703694       293.1694875        293.166583       293.1574097       293.1519737       293.1503112
    0.01393773247       293.2112932       293.2419557       293.2960952       308.0485898       642.0614027       294.8237356       293.2454522       293.2071139       293.1845479       293.1530441       293.1607108       293.1687994       293.1686489       293.1675095       293.1587521       293.1525352       293.1504406
    0.01418816489       293.2287201       293.2457105       293.2974797       308.7936146       654.2504421       294.9316417       293.2480317       293.2126539       293.1950092       293.1581724       293.1556649       293.1665291       293.1675458       293.1681084       293.1601571       293.1532079       293.1506105
     0.0144385973       293.2460251       293.2503388       293.2976317       309.5663381        666.558105       295.0432722       293.2499143       293.2182581       293.2057198       293.1663853       293.1522913       293.1636545       293.1661935       293.1683297       293.1615741       293.1539981       293.1508301
    0.01468902971       293.2615925       293.2563163       293.2972469        310.339117       676.7279791       295.1559465       293.2516794       293.2241335        293.215829       293.1767373       293.1513588       293.1604167       293.1646098       293.1681415       293.1629395       293.1549074       293.1511099
    0.01493946213       293.2742849       293.2638168       293.2969178       311.0266408       679.2689491       295.2580406       293.2537914       293.2304115       293.2246069        293.188001        293.153364       293.1572039       293.1628255       293.1675333       293.1641797       293.1559302       293.1514608
    0.01518989454        293.283563       293.2726036       293.2968227       311.6509953       681.4678455       295.3393751       293.2564042       293.2370492       293.2315382       293.1989124       293.1583785       293.1545126       293.1608926       293.1665185       293.1652155       293.1570521       293.1518941
    0.01544032695       293.2894498       293.2820494        293.296548       312.2444218        684.203457       295.3995958        293.259225       293.2437637         293.23639       293.2083819        293.166038       293.1528753       293.1588961       293.1651361       293.1659682       293.1582479       293.1524203
    0.01569075937        293.292375       293.2912589       293.2951653       312.8445462        687.200043       295.4492867       293.2615029       293.2500094       293.2392336       293.2156867       293.1755439       293.1527739       293.1569709       293.1634509       293.1663668       293.1594803       293.1530482
    0.01594119178       293.2929806       293.2991567       293.2916211       313.4750744       690.2248213       295.5038952        293.262198       293.2551017       293.2403416       293.2204502       293.1858441       293.1545611       293.1552937       293.1615533       293.1663561       293.1607001       293.1537833
    0.01619162419       293.2919332       293.3046726       293.2852929       314.1426199       693.1843843       295.5757891       293.2603091        293.258272       293.2400787       293.2226973       293.1957694       293.1583758       293.1540832       293.1595572       293.1659036       293.1618472       293.1546263
    0.01644205661       293.2897914        293.306948       293.2763999       314.8397966       696.0941675       295.6692611       293.2552168       293.2588284       293.2387362       293.2227261       293.2042427       293.1640797       293.1535789       293.1575962       293.1650056       293.1628531       293.1555714