# Probe 0 (6 0.005 0.305)
# Probe 1 (6.3 0.005 0.305)
# Probe 2 (6.8 0.005 0.305)
# Probe 3 (8.3 0.005 0.305)
#           Probe                 0                 1                 2                 3
#            Time
    1.1999904e-06            101325            101325            101325            101325
  2.639965056e-06            101325            101325            101325            101325
  4.367944597e-06            101325            101325            101325            101325
  6.441505713e-06            101325            101325            101325            101325
   8.92973777e-06            101325            101325            101325            101325
  1.191552707e-05            101325            101325            101325            101325
  1.549838863e-05            101325            101325            101325            101325
  1.979776087e-05            101325            101325            101325            101325
  2.495674128e-05            101325            101325            101325            101325
  3.114713435e-05            101325            101325            101325            101325
  3.857523794e-05            101325            101325            101325            101325
  4.748896225e-05            101325            101325            101325            101325
  5.818543142e-05            101325            101325            101325            101325
  7.102064463e-05            101325            101325            101325            101325
  8.642131685e-05            101325            101325            101325            101325
  0.0001049009832            101325            101325            101325            101325
  0.0001270765827            101325            101325            101325            101325
  0.0001536896689            101325            101325            101325            101325
  0.0001856219625            101325            101325            101325            101325
  0.0002239407148            101325            101325            101325            101325
  0.0002699019884            101325            101325            101325            101325
  0.0003250351347            101325            101325            101325            101325
  0.0003911802278            101325            101325            101325            101325
  0.0004705543394            101325            101325            101325            101325
  0.0005658032734            101325            101325            101325            101325
  0.0006799700095            101325            101325            101325            101325
  0.0008169700928            101325            101325            101325            101325
  0.0009814618316            101325            101325            101325            101325
   0.001179117227            101325            101325            101325            101325
   0.001416111804            101325            101325            101325            101325
   0.001666544217            101325            101325            101325            101325
   0.001916976631       101324.9999            101325            101325            101325
   0.002167409044       101324.9996            101325            101325            101325
   0.002417841458        101324.999       101324.9999            101325            101325
   0.002668273871       101324.9976       101324.9998            101325            101325
   0.002918706284        101324.995       101324.9995            101325            101325
   0.003169138698       101324.9905       101324.9989            101325            101325
   0.003419571111        101324.984       101324.9977            101325            101325
   0.003670003524       101324.9753       101324.9956       101324.9999            101325
   0.003920435938       101324.9652       101324.9922       101324.9998            101325
   0.004170868351       101324.9548       101324.9872       101324.9995            101325
   0.004421300765       101324.9457       101324.9804       101324.9989            101325
   0.004671733178       101324.9392       101324.9721        101324.998            101325
   0.004922165591       101324.9361        101324.963       101324.9965            101325
   0.005172598005       101324.9362       101324.9541       101324.9941            101325
   0.005423030418       101324.9387       101324.9465       101324.9906            101325
   0.005673462831       101324.9432       101324.9413       101324.9859            101325
   0.005923895245       101324.9501       101324.9392         101324.98            101325
   0.006174327658       101324.9617       101324.9405       101324.9731            101325
   0.006424760072       101324.9828       101324.9453       101324.9657            101325
   0.006675192485        101325.021       101324.9541       101324.9585            101325
   0.006925624898        101325.085       101324.9686       101324.9525            101325
   0.007176057312       101325.1871       101324.9925       101324.9486       101324.9999
   0.007426489725       101325.3473       101325.0318       101324.9477       101324.9998
   0.007676922139        101325.596       101325.0947       101324.9509       101324.9997
   0.007927354552       101325.9753        101325.193       101324.9593       101324.9995
   0.008177786965         101326.54       101325.3446       101324.9745       101324.9992
   0.008428219379        101327.356       101325.5752       101324.9994       101324.9988
   0.008678651792       101328.4968       101325.9201       101325.0384       101324.9981
   0.008929084205       101330.0359        101326.425       101325.0976        101324.997
   0.009179516619        101332.037       101327.1442       101325.1862       101324.9956
   0.009429949032       101334.5414       101328.1378       101325.3184       101324.9938
   0.009680381446       101337.5552       101329.4659       101325.5139       101324.9914
   0.009930813859       101341.0372       101331.1817       101325.7995       101324.9885
    0.01018124627       101344.8918       101333.3225       101326.2088       101324.9852
    0.01043167869       101348.9524       101335.9018        101326.781       101324.9815
     0.0106821111       101352.9618       101338.8958       101327.5594       101324.9779
    0.01093254351       101356.5994       101342.2309       101328.5884       101324.9748
    0.01118297593       101359.5145       101345.7652       101329.9095       101324.9728
    0.01143340834       101361.3424       101349.2939       101331.5565       101324.9731
    0.01168384075       101361.7434       101352.5572       101333.5474       101324.9769
    0.01193427317       101360.4774       101355.2739       101335.8727       101324.9858
    0.01218470558       101357.4913       101357.1316       101338.4877       101325.0023
    0.01243513799       101352.9736       101357.8283       101341.2984       101325.0286
    0.01268557041       101347.3564       101357.1413       101344.1666       101325.0675
    0.01293600282       101341.2736       101354.9875       101346.9185       101325.1231
    0.01318643523       101335.4756       101351.4634       101349.3452       101325.2013
    0.01343686765        101330.673       101346.8604       101351.2091       101325.3107
    0.01368730006       101327.3941       101341.6459       101352.2759       101325.4626
    0.01393773247       101325.9212       101336.4085       101352.3513        101325.671
    0.01418816489       101326.2909       101331.7764       101351.3193       101325.9529
     0.0144385973       101328.3764       101328.3186       101349.1767       101326.3271
    0.01468902971        101331.998       101326.4476       101346.0546       101326.8141
    0.01493946213       101336.9775       101326.3628       101342.2223       101327.4342
    0.01518989454       101343.1229       101328.0657       101338.0704       101328.2063
    0.01544032695        101350.182         101331.41       101334.0755       101329.1445
    0.01569075937       101357.7972       101336.1423       101330.7413       101330.2583
    0.01594119178        101365.462       101341.9305       101328.5168       101331.5434
    0.01619162419       101372.5373       101348.3838       101327.7188       101332.9866
    0.01644205661       101378.1285       101355.0754       101328.4749       101334.5538
    0.01669248902       101381.3282       101361.5154       101330.7248       101336.1954
    0.01694292143       101381.4465       101367.0816       101334.2573       101337.8423
    0.01719335385       101378.2218        101371.115       101338.7356       101339.4048
    0.01744378626        101371.996       101372.9608       101343.7161       101340.7785
    0.01769421867       101363.7241       101372.1128       101348.7225       101341.8488
    0.01794465109       101354.7678         101368.44       101353.2214       101342.5095
     0.0181950835       101346.5617       101362.3304       101356.7052       101342.6717
    0.01844551591       101340.3079       101354.6642       101358.7378       101342.2848
    0.01869594833       101336.8229       101346.6551       101359.0147       101341.3478
    0.01894638074       101336.5596        101339.631       101357.4328       101339.9156
    0.01919681315       101339.6981       101334.8136       101354.1496        101338.089
    0.01944724557        101346.266       101333.1157       101349.6042       101336.0189
    0.01969767798       101356.1464       101335.0406       101344.4922       101333.9075
    0.01994811039       101368.9093       101340.5844       101339.6959       101331.9765
    0.02019854281       101383.5708       101349.2857       101336.1627       101330.4331
    0.02044897522       101398.4588       101360.3459       101334.7603       101329.4454
    0.02069940763       101411.3094       101372.7523        101336.081       101329.1015
    0.02094984005       101419.6173        101385.343       101340.2679       101329.4162
    0.02120027246        101421.255       101396.8093       101347.0166       101330.3179
    0.02145070487       101414.9079       101405.7481       101355.6197       101331.6738
    0.02170113729        101400.954       101410.5326       101365.0765       101333.3052
     0.0219515697       101381.5612       101409.7974       101374.2784       101335.0122
    0.02220200211       101360.2737        101402.793       101382.2121       101336.6041
    0.02245243453        101341.178       101389.7291       101388.1067       101337.9281
    0.02270286694        101327.815       101372.1009       101391.2617       101338.8914
    0.02295329935       101322.2073       101352.6505       101391.1593        101339.477
    0.02320373177       101324.4134       101334.7929       101387.4723       101339.7502
    0.02345416418       101332.7611       101321.7134       101380.1711       101339.8371
    0.02370459659       101344.5584       101315.5369       101369.6857       101339.9312
    0.02395502901       101356.9542       101316.9119        101357.009       101340.2633
    0.02420546142       101367.6158       101324.9931       101343.6454        101341.025
    0.02445589384       101375.1208       101337.5121       101331.3918       101342.3088
    0.02470632625       101379.0855       101351.4963       101322.0835       101344.1084
    0.02495675866       101379.9943       101364.1192       101317.2699        101346.322
    0.02520719108       101378.7718       101373.3743       101317.6584       101348.7609
    0.02545762349       101376.4065       101378.4621        101322.996       101351.1677
     0.0257080559       101373.8332       101379.6531       101332.1226       101353.2441
    0.02595848832       101371.8516       101377.9414       101343.2224        101354.664
    0.02620892073       101371.0916       101374.6411       101354.2975       101355.2083
    0.02645935314        101371.974       101371.0333       101363.6232       101354.8053
    0.02670978556       101374.6642       101368.1268       101370.0859       101353.5336
    0.02696021797       101379.0258       101366.5513       101373.3319       101351.5433
    0.02721065038       101384.6377       101366.5719       101373.6787       101349.0181
     0.0274610828        101390.809       101368.1745          101371.9       101346.1693
    0.02771151521       101396.6384       101371.1829       101368.9355       101343.2249
    0.02796194762       101401.1724       101375.2551        101365.668       101340.4063
    0.02821238004       101403.6053       101379.8949       101362.8069       101337.9295
    0.02846281245       101403.4689       101384.4609       101360.8516       101335.9534
    0.02871324486       101400.7596       101388.2435       101360.0848       101334.5319
    0.02896367728       101395.9526       101390.6259       101360.6267       101333.6704
    0.02921410969       101389.8791       101391.2238       101362.4385        101333.405
     0.0294645421       101383.4966       101389.9384       101365.3059       101333.8003
    0.02971497452       101377.6495       101386.9604       101368.8243       101334.9298
    0.02996540693       101372.9251       101382.7306       101372.4239       101336.8311
    0.03021583934       101369.5368       101377.8528       101375.4733       101339.4785
    0.03046627176       101367.3758       101372.9643         101377.42       101342.7226
    0.03071670417       101366.1628       101368.5976       101377.8807       101346.2441
    0.03096713658       101365.6092       101365.0878       101376.7059       101349.6391
      0.031217569        101365.532       101362.5546       101374.0142       101352.4755
    0.03146800141       101365.9008       101360.9544       101370.1699       101354.4005
    0.03171843382        101366.816       101360.1719       101365.7053       101355.1827
    0.03196886624       101368.4339        101360.105       101361.2106       101354.7485
    0.03221929865       101370.8653       101360.7098        101357.228       101353.2031
    0.03246973106       101374.0862       101361.9945       101354.1698       101350.8364
    0.03272016348       101377.8899       101363.9688       101352.3139       101348.0811
    0.03297059589       101381.9007       101366.5752       101351.7517       101345.4695
     0.0332210283       101385.6413       101369.6375       101352.4011       101343.4977
    0.03347146072       101388.6197       101372.8523       101354.0434       101342.5379
    0.03372189313        101390.487       101375.8308       101356.3686       101342.7828
    0.03397232554       101391.0445        101378.175       101359.0198        101344.218
    0.03422275796       101390.2894        101379.555       101361.6361       101346.6529
    0.03447319037       101388.4218       101379.8543       101363.8899       101349.7146
    0.03472362278        101385.832       101379.0954       101365.5291        101352.887
     0.0349740552       101383.0666       101377.4118       101366.3987       101355.6306
    0.03522448761       101380.7621       101375.0868       101366.4442       101357.4823
    0.03547492002       101379.5274       101372.5916       101365.6969       101358.1462
    0.03572535244       101379.7877       101370.5232       101364.2904       101357.5498
    0.03597578485       101381.7046       101369.4595       101362.4877       101355.8485
    0.03622621726       101385.1329       101369.8029       101360.6709       101353.3828
    0.03647664968       101389.6592       101371.7018       101359.2773       101350.5713
    0.03672708209       101394.6843       101375.2208       101358.7016       101347.8236
     0.0369775145       101399.5575       101380.0969       101359.2113        101345.476
    0.03722794692       101403.6875       101385.7901       101360.9381       101343.7434
    0.03747837933       101406.6263       101391.6234       101363.9041       101342.6905
    0.03772881174       101408.1362        101396.907       101367.9379       101342.2356
    0.03797924416       101408.2095       101401.0407       101372.7011       101342.1925
    0.03822967657       101407.0336       101403.6001       101377.7365       101342.3296
    0.03848010898       101404.9212       101404.3923       101382.5262       101342.4435
     0.0387305414       101402.2238       101403.4643       101386.5699       101342.4147
    0.03898097381       101399.3063       101401.0532       101389.4704       101342.2333
    0.03923140622       101396.4414       101397.5291       101390.9895       101341.9935
    0.03948183864       101393.7678       101393.3104       101391.0538       101341.8649
    0.03973227105       101391.2854       101388.8007       101389.8014        101342.052
    0.03998270346       101388.8789       101384.3489       101387.4607       101342.7373
    0.04023313588       101386.3708       101380.2287       101384.3079       101344.0414
    0.04048356829       101383.5947       101376.6241       101380.6427       101345.9541
     0.0407340007       101380.4705       101373.6138        101376.758       101348.4059
    0.04098443312       101377.0542       101371.1651       101372.9124       101351.2551
    0.04123486553       101373.5489       101369.1561       101369.3142       101354.2794
    0.04148529795       101370.2741       101367.4323       101366.1176       101357.2064
    0.04173573036       101367.6155       101365.8764       101363.4279       101359.7776
    0.04198616277       101365.9989       101364.4589       101361.3034       101361.7941
    0.04223659519       101365.8085       101363.2558        101359.751       101363.1393
     0.0424870276       101367.3246       101362.4779       101358.7165       101363.7697
    0.04273746001       101370.6882       101362.3348       101358.0839       101363.7405
    0.04298789243       101375.8343       101363.0271       101357.7034       101363.1518
    0.04323832484        101382.413        101364.763        101357.432       101362.1512
    0.04348875725       101389.7736       101367.7218       101357.1617       101360.8873
    0.04373918967       101397.0736       101371.9587       101356.8734       101359.4829
    0.04398962208       101403.4923       101377.3012       101356.6835       101358.0308
    0.04424005449       101408.4507        101383.303       101356.8242       101356.6048
    0.04449048691       101411.7157       101389.2948        101357.583         101355.25
    0.04474091932       101413.3407       101394.5309       101359.2143       101353.9655
    0.04499135173       101413.5722        101398.427       101361.8506       101352.7571
    0.04524178415       101412.5845       101400.6456       101365.4417       101351.6097
    0.04549221656       101410.4477       101401.1697        101369.738       101350.4905
    0.04574264897       101407.2465       101400.2747       101374.3125       101349.3742
    0.04599308139       101403.2379       101398.3982       101378.6462       101348.2605
     0.0462435138       101398.9286       101395.9873       101382.2485       101347.1751
    0.04649394621       101394.9966       101393.3945       101384.7851       101346.1579
    0.04674437863       101392.1002       101390.8578       101386.1519       101345.2488
    0.04699481104        101390.683       101388.5488       101386.4723       101344.4762
    0.04724524345       101390.8174       101386.6429       101386.0224       101343.8578
    0.04749567587        101392.288       101385.3514       101385.1154       101343.4062
    0.04774610828       101394.8068       101384.8941       101383.9933       101343.1373
    0.04799654069       101398.2095       101385.4236       101382.7719       101343.0775
    0.04824697311       101402.5085       101386.9952       101381.4592       101343.2679
    0.04849740552       101407.7829       101389.5684       101380.0328       101343.7616
    0.04874783793       101413.9849       101393.0212       101378.5321       101344.6145
    0.04899827035       101420.7734         101397.17       101377.1171       101345.8702
    0.04924870276       101427.4532       101401.7837       101376.0603        101347.525
    0.04949913517       101433.0387       101406.5816        101375.677       101349.5229
    0.04974956759       101436.4134        101411.217       101376.2247       101351.7743
             0.05       101436.5431       101415.2602       101377.8305       101354.1499
          0.05025       101432.7197       101418.1964       101380.4175       101356.4861
           0.0505        101424.757       101419.4765       101383.7409       101358.6188
          0.05075       101413.2384       101418.5597       101387.4576       101360.4009
            0.051        101399.495       101415.0177       101391.1981       101361.7316
          0.05125       101385.4175       101408.6873       101394.6004       101362.5688
           0.0515       101373.1122       101399.7479       101397.3154       101362.9261
          0.05175       101364.4175       101388.7865       101398.9974       101362.8571
            0.052       101360.4265        101376.859       101399.2559       101362.4357
          0.05225       101361.2061       101365.4356       101397.6863       101361.7504
           0.0525       101365.8401       101356.1806       101393.9612       101360.8919
          0.05275       101372.7779         101350.59       101387.9592       101359.9531
            0.053        101380.391       101349.5904        101379.898       101359.0357
          0.05325       101387.4117       101353.2508       101370.4191       101358.2537
           0.0535       101393.2183       101360.6986       101360.5928       101357.7276
          0.05375       101397.8214       101370.2962       101351.7804         101357.57
            0.054       101401.6643       101380.0934       101345.4015       101357.8637
          0.05425       101405.3194       101388.3897        101342.607       101358.6499
           0.0545       101409.2102       101394.2099       101343.9425       101359.9023
          0.05475       101413.4672       101397.5098       101349.1327       101361.5163
            0.055       101417.9512       101399.0612       101357.1064       101363.3129
          0.05525       101422.3432       101400.0707       101366.2553       101365.0517
           0.0555       101426.2818       101401.7985       101374.8605       101366.4688
          0.05575       101429.5321       101405.0124       101381.5664       101367.3036
            0.056       101432.0403       101409.7576       101385.7477       101367.3268
          0.05625       101433.7366       101415.4366       101387.6845       101366.3734
           0.0565       101434.4357       101421.0834       101388.3681       101364.3718
          0.05675       101433.7845       101425.7375       101389.0906       101361.3627
            0.057       101431.3843       101428.5621        101390.955       101357.4983
          0.05725        101427.025       101428.8524        101394.471       101353.0296
           0.0575       101420.8866       101426.2418       101399.3675       101348.3485
          0.05775       101413.5445       101420.8438       101404.6978         101343.94
            0.058         101405.75       101413.2283       101409.1646       101340.2997
          0.05825       101398.1091        101404.268       101411.4809       101337.8739
           0.0585       101390.8793       101394.9304       101410.8098       101336.9757
          0.05875       101384.0402       101386.0605       101407.0227        101337.739
            0.059       101377.6077       101378.2142       101400.7147       101340.1167
          0.05925       101371.9774       101371.6064       101392.9675       101343.8336
           0.0595       101368.0397       101366.2131       101384.9864       101348.4608
          0.05975         101366.95       101361.9989       101377.7518       101353.4761
             0.06       101369.6639       101359.1583        101371.789       101358.3414
          0.06025       101376.5006       101358.2268        101367.113       101362.6032
           0.0605       101386.9872       101359.9688       101363.3571       101365.9754
          0.06075       101400.1076       101365.0696       101360.0384       101368.3795
            0.061       101414.5073       101373.7748       101356.8655        101369.926
          0.06125        101428.854        101385.646       101353.9719       101370.8466
           0.0615       101442.0261       101399.5626       101351.9805       101371.3994
          0.06175       101453.0933       101413.9816       101351.8557        101371.784
            0.062       101461.2047       101427.2495       101354.5812       101372.0975
          0.06225        101465.573       101437.9678       101360.7723        101372.301
           0.0625       101465.6285       101445.2343       101370.3596       101372.2321
          0.06275        101461.348        101448.685       101382.4836       101371.6565
            0.063       101453.3961       101448.3886       101395.6273       101370.3473
          0.06325        101443.039       101444.8577        101407.981       101368.1526
           0.0635       101431.8742       101438.7528       101417.9059       101365.0455
          0.06375       101421.4499       101430.8496       101424.3039       101361.1126
            0.064       101412.9132       101422.0405       101426.9159       101356.5647
          0.06425       101406.8005       101413.2569       101426.0958       101351.7313
           0.0645       101403.0352       101405.3169       101422.6168       101347.0057
          0.06475       101401.1198       101398.7787       101417.4327       101342.8133
            0.065       101400.4343       101393.8811       101411.4305       101339.5672
          0.06525       101400.5198       101390.6002       101405.2699        101337.633
           0.0655       101401.2378       101388.7799        101399.346       101337.2934
          0.06575       101402.7478       101388.2619       101393.8473       101338.7144
            0.066       101405.3274       101388.9537       101388.8568       101341.9439
          0.06625       101409.1505       101390.8152       101384.4529       101346.8823
           0.0665       101414.1059       101393.7924       101380.7699       101353.1754
          0.06675       101419.7108       101397.7412       101378.0022       101360.3124
            0.067       101425.2468       101402.3897       101376.3574       101367.6745
          0.06725       101429.9746       101407.3441       101375.9849       101374.5883
           0.0675       101433.3866        101412.127       101376.9131       101380.4148
          0.06775        101435.357       101416.2462        101379.025       101384.6525
            0.068       101436.1104       101419.3237       101382.0769         101387.01
          0.06825       101436.0519       101421.1986        101385.731        101387.431
           0.0685        101435.585       101421.9503       101389.5948       101386.0747
          0.06875       101435.0103       101421.8491       101393.2756       101383.2739
            0.069       101434.5128       101421.2626       101396.4366         101379.47
          0.06925       101434.1805       101420.5423       101398.8428       101375.1226
           0.0695       101434.0059       101419.9211       101400.3911       101370.6603
          0.06975       101433.8768         101419.46       101401.1214       101366.4155
             0.07       101433.6123       101419.0629       101401.2013        101362.623
          0.07025       101433.0732        101418.552       101400.8843       101359.4424
           0.0705       101432.3066       101417.7702        101400.445       101356.9684
          0.07075       101431.6384       101416.6772       101400.1087       101355.2509
            0.071       101431.6402       101415.4165       101399.9955       101354.3154
          0.07125       101432.9566       101414.3376       101400.1003       101354.1661
           0.0715        101436.054        101413.961       101400.3209        101354.785
          0.07175       101441.0029       101414.8733       101400.5248       101356.1151
            0.072       101447.3962        101417.564       101400.6328       101358.0373
          0.07225       101454.4733       101422.2394       101400.6879       101360.3733
           0.0725       101461.2905       101428.6847       101400.8806       101362.9093
          0.07275        101467.078       101436.2415       101401.5172         101365.42
            0.073        101471.516       101443.9402       101402.9348       101367.6941
          0.07325       101474.7265       101450.7575       101405.3871       101369.5609
           0.0735       101476.9694       101455.9114       101408.9373       101370.9171
          0.07375        101478.213       101459.0685       101413.3949       101371.7406
            0.074       101477.8525       101460.3621       101418.3251       101372.0823
          0.07425       101474.9015       101460.2004       101423.1371       101372.0442
           0.0745       101468.4624       101458.9559        101427.227       101371.7578
          0.07475       101458.4871        101456.705       101430.1306       101371.3429
            0.075       101446.2714       101453.1766       101431.6351       101370.8823
    0.07524752475       101434.4552       101448.0316       101431.8149       101370.4207
     0.0754950495       101425.8536       101441.0999       101430.9758       101369.9607
    0.07574009901       101422.7593       101432.9147       101429.5011       101369.5032
    0.07598269802       101425.7091       101424.6118       101427.6909       101369.0674
    0.07622529703       101433.5092       101417.6704       101425.6303       101368.7131
    0.07646544554       101443.4987       101413.6552       101423.2413       101368.5547