# Continuity error
# Time            # Local           # Global          # Cumulative      
0.05              6.4716260143e-08	1.1085050016e-09	1.1085050016e-09
0.1               8.8498412241e-08	9.8395797664e-09	1.0948084768e-08
0.15              1.1315557906e-07	2.4445590782e-08	3.5393675550e-08
0.2               2.5023337626e-07	1.3298034040e-08	4.8691709589e-08
0.25              6.9739352190e-07	7.3221416780e-08	1.2191312637e-07
0.3               1.1389584969e-06	1.3702886435e-07	2.5894199072e-07
