# Region type :   patch explosionChamber
# Faces           : 37875
# Area            : 9.6770513364e+01
# Scale factor    : 1.0000000000e+00
# Time            	min(k)
1.19999040008e-06 	1.4999927266e-02
2.63996505619e-06 	1.4999839987e-02
4.36794459704e-06 	1.4999735253e-02
6.44150571252e-06 	1.4999609574e-02
8.92973776977e-06 	1.4999458764e-02
1.19155270705e-05 	1.4999277801e-02
1.54983886296e-05 	1.4999060655e-02
1.97977608653e-05 	1.4998800091e-02
2.49567412781e-05 	1.4998487439e-02
3.11471343486e-05 	1.4998112294e-02
3.8575237941e-05  	1.4997662163e-02
4.74889622518e-05 	1.4997122034e-02
5.81854314247e-05 	1.4996473921e-02
7.10206446266e-05 	1.4995696280e-02
8.64213168522e-05 	1.4994763292e-02
0.000104900983155 	1.4993643900e-02
0.000127076582718 	1.4992300810e-02
0.000153689668853 	1.4990689216e-02
0.000185621962467 	1.4988755882e-02
0.000223940714803 	1.4986436415e-02
0.000269901988382 	1.4983655111e-02
0.000325035134736 	1.4980319885e-02
0.000391180227766 	1.4976320095e-02
0.000470554339401 	1.4971522638e-02
0.000565803273364 	1.4965768988e-02
0.000679970009453 	1.4958877315e-02
0.00081697009276  	1.4950614115e-02
0.00098146183158  	1.4940702549e-02
0.00117911722742  	1.4928806806e-02
0.00141611180399  	1.4914563752e-02
0.00166654421737  	1.4899537095e-02
0.00191697663075  	1.4884535042e-02
0.00216740904413  	1.4869557538e-02
0.00241784145751  	1.4854604529e-02
0.00266827387089  	1.4839675961e-02
0.00291870628428  	1.4824771779e-02
0.00316913869766  	1.4809891929e-02
0.00341957111104  	1.4795036358e-02
0.00367000352442  	1.4780205011e-02
0.0039204359378   	1.4765397835e-02
0.00417086835118  	1.4750614776e-02
0.00442130076456  	1.4735855780e-02
0.00467173317795  	1.4721120795e-02
0.00492216559133  	1.4706409767e-02
0.00517259800471  	1.4691722643e-02
0.00542303041809  	1.4677059371e-02
0.00567346283147  	1.4662419897e-02
0.00592389524485  	1.4647804170e-02
0.00617432765824  	1.4633212136e-02
0.00642476007162  	1.4618643743e-02
0.006675192485    	1.4604098941e-02
0.00692562489838  	1.4589577675e-02
0.00717605731176  	1.4575079895e-02
0.00742648972514  	1.4560605549e-02
0.00767692213852  	1.4546154584e-02
0.00792735455191  	1.4531726951e-02
0.00817778696529  	1.4517322597e-02
0.00842821937867  	1.4502941472e-02
0.00867865179205  	1.4488583523e-02
0.00892908420543  	1.4474248701e-02
0.00917951661881  	1.4459936954e-02
0.0094299490322   	1.4445648233e-02
0.00968038144558  	1.4431382486e-02
0.00993081385896  	1.4417139665e-02
0.0101812462723   	1.4402919720e-02
0.0104316786857   	1.4388722604e-02
0.0106821110991   	1.4374548269e-02
0.0109325435125   	1.4360396669e-02
0.0111829759259   	1.4346267760e-02
0.0114334083392   	1.4332161499e-02
0.0116838407526   	1.4318077845e-02
0.011934273166    	1.4304016756e-02
0.0121847055794   	1.4289978190e-02
0.0124351379928   	1.4275962105e-02
0.0126855704062   	1.4261968456e-02
0.0129360028195   	1.4247997192e-02
0.0131864352329   	1.4234048335e-02
0.0134368676463   	1.4220122134e-02
0.0136873000597   	1.4206218821e-02
0.0139377324731   	1.4192338666e-02
0.0141881648864   	1.4178482040e-02
0.0144385972998   	1.4164649486e-02
0.0146890297132   	1.4150841745e-02
0.0149394621266   	1.4137059778e-02
0.01518989454     	1.4123304793e-02
0.0154403269534   	1.4109578264e-02
0.0156907593667   	1.4095881936e-02
0.0159411917801   	1.4082217802e-02
0.0161916241935   	1.4068588048e-02
0.0164420566069   	1.4054994976e-02
0.0166924890203   	1.4041440872e-02
0.0169429214336   	1.4027927840e-02
0.017193353847    	1.4014457606e-02
0.0174437862604   	1.4001031296e-02
0.0176942186738   	1.3987649192e-02
0.0179446510872   	1.3974310516e-02
0.0181950835005   	1.3961013271e-02
0.0184455159139   	1.3947754230e-02
0.0186959483273   	1.3934529016e-02
0.0189463807407   	1.3921332310e-02
0.0191968131541   	1.3908158246e-02
0.0194472455675   	1.3895000940e-02
0.0196976779808   	1.3881855088e-02
0.0199481103942   	1.3868716573e-02
0.0201985428076   	1.3855582977e-02
0.020448975221    	1.3842453911e-02
0.0206994076344   	1.3829331066e-02
0.0209498400477   	1.3816218029e-02
0.0212002724611   	1.3803119729e-02
0.0214507048745   	1.3790041551e-02
0.0217011372879   	1.3776988600e-02
0.0219515697013   	1.3763965107e-02
0.0222020021147   	1.3750973784e-02
0.022452434528    	1.3738015381e-02
0.0227028669414   	1.3725088863e-02
0.0229532993548   	1.3712192130e-02
0.0232037317682   	1.3699322987e-02
0.0234541641816   	1.3686480163e-02
0.0237045965949   	1.3673664293e-02
0.0239550290083   	1.3660878208e-02
0.0242054614217   	1.3648126847e-02
0.0244558938351   	1.3635417281e-02
0.0247063262485   	1.3622758281e-02
0.0249567586618   	1.3610158923e-02
0.0252071910752   	1.3597626762e-02
0.0254576234886   	1.3585166328e-02
0.025708055902    	1.3572778082e-02
0.0259584883154   	1.3560457746e-02
0.0262089207288   	1.3548196156e-02
0.0264593531421   	1.3535979812e-02
0.0267097855555   	1.3523792130e-02
0.0269602179689   	1.3511615259e-02
0.0272106503823   	1.3499432247e-02
0.0274610827957   	1.3487229243e-02
0.027711515209    	1.3474997245e-02
0.0279619476224   	1.3462733179e-02
0.0282123800358   	1.3450440349e-02
0.0284628124492   	1.3438128175e-02
0.0287132448626   	1.3425811031e-02
0.028963677276    	1.3413506257e-02
0.0292141096893   	1.3401231833e-02
0.0294645421027   	1.3389004284e-02
0.0297149745161   	1.3376837025e-02
0.0299654069295   	1.3364739537e-02
0.0302158393429   	1.3352717234e-02
0.0304662717562   	1.3340771341e-02
0.0307167041696   	1.3328898446e-02
0.030967136583    	1.3317090347e-02
0.0312175689964   	1.3305334707e-02
0.0314680014098   	1.3293616149e-02
0.0317184338231   	1.3281917413e-02
0.0319688662365   	1.3270220656e-02
0.0322192986499   	1.3258509232e-02
0.0324697310633   	1.3246770140e-02
0.0327201634767   	1.3234996610e-02
0.0329705958901   	1.3223190037e-02
0.0332210283034   	1.3211360694e-02
0.0334714607168   	1.3199527089e-02
0.0337218931302   	1.3187631400e-02
0.0339723255436   	1.3175748352e-02
0.034222757957    	1.3163924636e-02
0.0344731903703   	1.3152173282e-02
0.0347236227837   	1.3140500164e-02
0.0349740551971   	1.3128902975e-02
0.0352244876105   	1.3117371917e-02
0.0354749200239   	1.3105891568e-02
0.0357253524373   	1.3094443413e-02
0.0359757848506   	1.3083009157e-02
0.036226217264    	1.3071574289e-02
0.0364766496774   	1.3060130712e-02
0.0367270820908   	1.3048677745e-02
0.0369775145042   	1.3037221569e-02
0.0372279469175   	1.3025773324e-02
0.0374783793309   	1.3014346110e-02
0.0377288117443   	1.3002951527e-02
0.0379792441577   	1.2991596721e-02
0.0382296765711   	1.2980282793e-02
0.0384801089845   	1.2969004922e-02
0.0387305413978   	1.2957753704e-02
0.0389809738112   	1.2946517235e-02
0.0392314062246   	1.2935283756e-02
0.039481838638    	1.2924044367e-02
0.0397322710514   	1.2912795067e-02
0.0399827034647   	1.2901537641e-02
0.0402331358781   	1.2890279359e-02
0.0404835682915   	1.2879031699e-02
0.0407340007049   	1.2867808409e-02
0.0409844331183   	1.2856623319e-02
0.0412348655316   	1.2845488316e-02
0.041485297945    	1.2834411816e-02
0.0417357303584   	1.2823397962e-02
0.0419861627718   	1.2812446559e-02
0.0422365951852   	1.2801553587e-02
0.0424870275986   	1.2790712082e-02
0.0427374600119   	1.2779913197e-02
0.0429878924253   	1.2769147338e-02
0.0432383248387   	1.2758405211e-02
0.0434887572521   	1.2747678636e-02
0.0437391896655   	1.2736961037e-02
0.0439896220788   	1.2726247614e-02
0.0442400544922   	1.2715535269e-02
0.0444904869056   	1.2704822424e-02
0.044740919319    	1.2694108860e-02
0.0449913517324   	1.2683395659e-02
0.0452417841458   	1.2672685272e-02
0.0454922165591   	1.2661981623e-02
0.0457426489725   	1.2651290136e-02
0.0459930813859   	1.2640617629e-02
0.0462435137993   	1.2629971954e-02
0.0464939462127   	1.2619361310e-02
0.046744378626    	1.2608793212e-02
0.0469948110394   	1.2598273277e-02
0.0472452434528   	1.2587804098e-02
0.0474956758662   	1.2577384477e-02
0.0477461082796   	1.2567009334e-02
0.0479965406929   	1.2556670427e-02
0.0482469731063   	1.2546357598e-02
0.0484974055197   	1.2536060246e-02
0.0487478379331   	1.2525768856e-02
0.0489982703465   	1.2515476429e-02
0.0492487027599   	1.2505179479e-02
0.0494991351732   	1.2494878755e-02
0.0497495675866   	1.2484578410e-02
0.05              	1.2474284898e-02
0.05025           	1.2464024075e-02
0.0505            	1.2453786885e-02
0.05075           	1.2443581164e-02
0.051             	1.2433412688e-02
0.05125           	1.2423284713e-02
0.0515            	1.2413197999e-02
0.05175           	1.2403151132e-02
0.052             	1.2393141130e-02
0.05225           	1.2383164287e-02
0.0525            	1.2373217039e-02
0.05275           	1.2363296643e-02
0.053             	1.2353401532e-02
0.05325           	1.2343531286e-02
0.0535            	1.2333686254e-02
0.05375           	1.2323866984e-02
0.054             	1.2314073682e-02
0.05425           	1.2304305904e-02
0.0545            	1.2294562512e-02
0.05475           	1.2284841810e-02
0.055             	1.2275141753e-02
0.05525           	1.2265460247e-02
0.0555            	1.2255795521e-02
0.05575           	1.2246146544e-02
0.056             	1.2236513292e-02
0.05625           	1.2226896750e-02
0.0565            	1.2217298646e-02
0.05675           	1.2207721026e-02
0.057             	1.2198165829e-02
0.05725           	1.2188634528e-02
0.0575            	1.2179127884e-02
0.05775           	1.2169645775e-02
0.058             	1.2160187176e-02
0.05825           	1.2150750321e-02
0.0585            	1.2141333114e-02
0.05875           	1.2131933693e-02
0.059             	1.2122551021e-02
0.05925           	1.2113185362e-02
0.0595            	1.2103838465e-02
0.05975           	1.2094513362e-02
0.06              	1.2085213808e-02
0.06025           	1.2075943497e-02
0.0605            	1.2066705187e-02
0.06075           	1.2057499935e-02
0.061             	1.2048326679e-02
0.06125           	1.2039182478e-02
0.0615            	1.2030063431e-02
0.06175           	1.2020965903e-02
0.062             	1.2011887594e-02
0.06225           	1.2002828199e-02
0.0625            	1.1993789378e-02
0.06275           	1.1984774020e-02
0.063             	1.1975785000e-02
0.06325           	1.1966823850e-02
0.0635            	1.1957889801e-02
0.06375           	1.1948979574e-02
0.064             	1.1940088080e-02
0.06425           	1.1931209849e-02
0.0645            	1.1922340778e-02
0.06475           	1.1913479643e-02
0.065             	1.1904628807e-02
0.06525           	1.1895793855e-02
0.0655            	1.1886982052e-02
0.06575           	1.1878200243e-02
0.066             	1.1869452872e-02
0.06625           	1.1860740630e-02
0.0665            	1.1852060326e-02
0.06675           	1.1843406171e-02
0.067             	1.1834771785e-02
0.06725           	1.1826152455e-02
0.0675            	1.1817547037e-02
0.06775           	1.1808958775e-02
0.068             	1.1800394682e-02
0.06825           	1.1791863751e-02
0.0685            	1.1783374439e-02
0.06875           	1.1774932085e-02
0.069             	1.1766537133e-02
0.06925           	1.1758184788e-02
0.069497983871    	1.1749933054e-02
0.069742          	1.1741835189e-02
0.069984064       	1.1733813927e-02
0.070224191488    	1.1725861818e-02
0.0704623979561   	1.1717975568e-02
0.0706986987724   	1.1710155958e-02
0.0709331091823   	1.1702406832e-02
0.0711675195921   	1.1694671829e-02
0.0714000395954   	1.1687019393e-02
0.0716306844374   	1.1679453517e-02
0.0718613292793   	1.1671915638e-02
0.07209009896     	1.1664467884e-02
0.0723188686406   	1.1657048206e-02
0.07254576316     	1.1649715032e-02
0.0727707978882   	1.1642464506e-02
0.0729958326164   	1.1635233810e-02
0.0732190075534   	1.1628080398e-02
0.0734403380695   	1.1621002009e-02
0.0736616685856   	1.1613938874e-02
0.0738811546807   	1.1606949562e-02
0.074098811725    	1.1600033331e-02
0.0743164687694   	1.1593132185e-02
0.0745322967629   	1.1586304314e-02
0.0747481247564   	1.1579492199e-02
0.0749621236992   	1.1572754038e-02
0.0751743090916   	1.1566089716e-02
0.0753864944839   	1.1559443050e-02
0.075596866326    	1.1552871627e-02
0.075807238168    	1.1544705225e-02
0.0760157964596   	1.1525437075e-02
0.076222556835    	1.1506481989e-02
0.0764293172103   	1.1487533073e-02
0.0766342796694   	1.1468628037e-02
0.0768374598462   	1.1449719948e-02
0.0770406400229   	1.1430894088e-02
0.0772438201997   	1.1412365238e-02
0.0774452023219   	1.1394395169e-02
0.077646584444    	1.1376752380e-02
0.0778461685115   	1.1358429368e-02
0.0780457525789   	1.1340023332e-02
0.0782435385917   	1.1321731407e-02
0.0784413246045   	1.1303423674e-02
0.0786373125627   	1.1285286961e-02
0.0788333005208   	1.1267160991e-02
0.0790274904243   	1.1249208205e-02
0.0792216803278   	1.1231255853e-02
0.0794140721766   	1.1213455026e-02
0.0796064640254   	1.1195597064e-02
0.0797970578195   	1.1177784378e-02
0.0799876516137   	1.1159813012e-02
0.0801764473532   	1.1141891289e-02
0.0803652430927   	1.1123951359e-02
0.0805522407775   	1.1106262521e-02
0.080737457532    	1.1088859673e-02
0.0809226742865   	1.1071554216e-02
0.0811061101107   	1.1054463151e-02
0.0812895459349   	1.1037471952e-02
0.0814712008287   	1.1020726072e-02
0.0816528557225   	1.1004025335e-02
0.081832729686    	1.0987515265e-02
0.0820126036495   	1.0971062014e-02
0.0821906966827   	1.0954899894e-02
0.0823670264185   	1.0939105558e-02
0.0825433561543   	1.0923574797e-02
0.0827179225928   	1.0908463509e-02
0.0828924890313   	1.0893576598e-02
0.0830652921724   	1.0879017774e-02
0.0832380953135   	1.0864611618e-02
0.0834091351572   	1.0049979295e-02
0.0835801750009   	9.1006492325e-03
0.0837512148447   	8.1650833588e-03
0.0839204730234   	7.2521655551e-03
0.0840897312021   	6.3530975096e-03
0.0842589893808   	5.4666904481e-03
0.0844264469406   	4.6024413352e-03
0.0845939045003   	3.7505705053e-03
0.0847613620601   	2.9097045822e-03
0.084926999429    	2.0883404900e-03
0.0850926367979   	1.2782260403e-03
0.0852582741668   	4.8032319803e-04
0.0854239115358   	1.0000000000e-15
0.0855876878106   	1.0678518060e-02
0.0857514640855   	1.0666085165e-02
0.0859152403604   	1.0653827357e-02
0.0860790166353   	1.0641890939e-02
0.0862408885349   	1.0630380104e-02
0.0864027604345   	1.0618977451e-02
0.086564632334    	1.0607506947e-02
0.0867265042336   	1.0595931759e-02
0.0868864258694   	1.0584515286e-02
0.0870463475051   	1.0573315885e-02
0.0872062691409   	1.0562487809e-02
0.0873642164354   	1.0552181014e-02
0.08752216373     	1.0542151514e-02
0.0876801110245   	1.0532226259e-02
0.0878360589862   	1.0522387446e-02
0.087992006948    	1.0512442483e-02
0.0881479549097   	1.0502367652e-02
0.0883018775732   	1.0492270870e-02
0.0884558002367   	1.0482017948e-02
0.0886097229002   	1.0471692104e-02
0.0887636455637   	1.0461477554e-02
0.0889154881912   	1.0451711586e-02
0.0890673308187   	1.0442124999e-02
0.0892191734463   	1.0432967665e-02
0.0893689071484   	1.0424330190e-02
0.0895186408505   	1.0415848474e-02
0.0896683745527   	1.0407319804e-02
0.0898181082548   	1.0398678900e-02
0.0899656719033   	1.0390108284e-02
0.0901132355518   	1.0381571137e-02
0.0902607992003   	9.4834518996e-03
0.0904083628487   	7.8139862353e-03
0.0905559264972   	6.1854795932e-03
0.0907012199357   	4.6218039544e-03
0.0908465133742   	3.0968262511e-03
0.0909918068127   	1.6089182903e-03
0.0911371002512   	1.5435811785e-04
0.0912823936897   	1.0000000000e-15
0.0914253052686   	1.0307991457e-02
0.0915682168474   	1.0299953064e-02
0.0917111284263   	1.0291891662e-02
0.0918540400052   	1.0283929024e-02
0.091996951584    	1.0276208268e-02
0.0921398631629   	1.0268825533e-02
0.0922802227493   	1.0261902240e-02
0.0924205823356   	1.0255213103e-02
0.092560941922    	1.0248635954e-02
0.0927013015084   	1.0242118590e-02
0.0928416610948   	1.0235705808e-02
0.0929793214583   	1.0229349209e-02
0.0931169818219   	1.0222040756e-02
0.0932546421854   	1.0214798528e-02
0.093392302549    	1.0207708382e-02
0.0935299629126   	1.0200799715e-02
0.0936676232761   	1.0193656015e-02
0.0938023546958   	1.0186744025e-02
0.0939370861154   	1.0180905284e-02
0.0940718175351   	1.0174628141e-02
0.0942065489548   	1.0168265616e-02
0.0943412803744   	1.0162057223e-02
0.0944760117941   	1.0156013014e-02
0.0946075353228   	1.0150066563e-02
0.0947390588515   	1.0143002247e-02
0.0948705823802   	1.0136241000e-02
0.0950021059089   	1.0129865115e-02
0.0951336294376   	1.0123789726e-02
0.0952651529664   	1.0117848135e-02
0.0953966764951   	1.0111895590e-02
0.0955282000238   	1.0105865906e-02
0.0956559657374   	1.0099940220e-02
0.095783731451    	1.0093987174e-02
0.0959114971646   	1.0088060913e-02
0.0960392628782   	1.0082230965e-02
0.0961670285918   	1.0076584484e-02
0.0962947943054   	1.0071148582e-02
0.096422560019    	8.5305177051e-03
0.0965503257326   	6.2794058726e-03
0.0966780914462   	4.0768359504e-03
0.0968058571598   	1.9189627738e-03
0.0969336228734   	1.0000000000e-15
0.0970613885871   	1.0035438962e-02
0.0971838307293   	1.0030678582e-02
0.0973062728715   	1.0026949146e-02
0.0974287150137   	1.0023501092e-02
0.0975511571559   	1.0019392404e-02
0.0976735992981   	1.0014088785e-02
0.0977960414403   	1.0007837533e-02
0.0979184835825   	1.0001486544e-02
0.0980409257247   	9.9958618869e-03
0.0981633678669   	9.9912142664e-03
0.0982858100091   	9.9871781228e-03
0.0984082521513   	9.9831912039e-03
0.0985306942935   	9.9789166302e-03
0.0986531364357   	9.9743356688e-03
0.0987755785779   	9.9695337173e-03
0.0988980207201   	9.9645381942e-03
0.0990204628624   	9.9594279984e-03
0.0991429050046   	9.9544065740e-03
0.0992653471468   	9.9486267418e-03
0.099387789289    	9.9423081246e-03
0.0995102314312   	9.9365477070e-03
0.0996326735734   	9.9310715398e-03
0.0997551157156   	9.9255491936e-03
0.0998775578578   	9.9197611657e-03
0.1               	9.9136559745e-03
0.100118483412    	9.9075202367e-03
0.100236686058    	9.9014616211e-03
0.100354608603    	9.8957218276e-03
0.100472251711    	9.8901795286e-03
0.100589894818    	9.8845094756e-03
0.100707258489    	9.8786303190e-03
0.100824343385    	9.8727902050e-03
0.100941150171    	9.8673232897e-03
0.101057679505    	9.8623462004e-03
0.101173932048    	9.8576961429e-03
0.101289908456    	9.8530861064e-03
0.101405609386    	9.8482956845e-03
0.101521035492    	9.8432866642e-03
0.101635914555    	9.8381994276e-03
0.101750521393    	9.8331774535e-03
0.10186485665     	9.8283087362e-03
0.101978920971    	9.8235753297e-03
0.102092714997    	9.8188811267e-03
0.102206239369    	9.8141365601e-03
0.102319494726    	9.8092509502e-03
0.102432750083    	9.8041431856e-03
0.102545736425    	9.7988947191e-03
0.10265845439     	9.7937533352e-03
0.102770904617    	9.7889829063e-03
0.102883087742    	9.7846546375e-03
0.102995270866    	9.7806048848e-03
0.103107186888    	9.7766098962e-03
0.103218836443    	9.7725121962e-03
0.103329955596    	9.7682891826e-03
0.103440810809    	9.7639775227e-03
0.103551402707    	9.7596396504e-03
0.103661731917    	9.5439883415e-03
0.103771799062    	7.9753438160e-03
0.103881344562    	6.4658367959e-03
0.103990630475    	5.0122549315e-03
0.104099657417    	3.6130901934e-03
0.104208426001    	2.2647001502e-03
0.10431693684     	9.6129886050e-04
0.104425190545    	1.0000000000e-15
0.104533187723    	9.7228412038e-03
0.104640928985    	9.7189450969e-03
0.104748414935    	9.7148815744e-03
0.104855646179    	9.7107648898e-03
0.104962623321    	9.7068978843e-03
0.105069346962    	9.7034561920e-03
0.105175817704    	9.7003781231e-03
0.105282288446    	9.6972778329e-03
0.105388506288    	9.6937465452e-03
0.105494471831    	9.6898016000e-03
0.105600185675    	9.6859240145e-03
0.105705648417    	9.6829344406e-03
0.105811111159    	9.6800452524e-03
0.105916322799    	9.6766461228e-03
0.106021283935    	9.6730670936e-03
0.106125995164    	9.6698359617e-03
0.106230706392    	9.6668708228e-03
0.106335167714    	9.6637274689e-03
0.106439379724    	9.6602263756e-03
0.106543343018    	9.6566446599e-03
0.10664705819     	9.6533834489e-03
0.106750525831    	9.6506124392e-03
0.106853993473    	9.6482371298e-03
0.106957213584    	9.6460479744e-03
0.107060186758    	9.6437582301e-03
0.107162913584    	9.6410846831e-03
0.107265394652    	9.6379480640e-03
0.107367630549    	9.6346084966e-03
0.107469621864    	9.6314990115e-03
0.10757136918     	9.6288751156e-03
0.107672873082    	9.6266832109e-03
0.107774134151    	9.6247520079e-03
0.107875152969    	9.6229034855e-03
0.107975930115    	9.6209342534e-03
0.108076466167    	9.6187750013e-03
0.108177002219    	9.6167631813e-03
0.108277297178    	9.6151585536e-03
0.108377351621    	9.6136943571e-03
0.108477406064    	9.6119099503e-03
0.108577219992    	9.6103196443e-03
0.108676793983    	9.6080509073e-03
0.108776128612    	9.6049121126e-03
0.108875224457    	9.6017893685e-03
0.108974082091    	9.5993690733e-03
0.109072939724    	9.5974398148e-03
0.109171559146    	9.5954897103e-03
0.109269940932    	9.5934351407e-03
0.109368085652    	9.5917041056e-03
0.10946599388     	9.5904983169e-03
0.109563666184    	9.5894397812e-03
0.109661338487    	9.5880543693e-03
0.109758774868    	9.5863409413e-03
0.109855975895    	9.5846877595e-03
0.109952942137    	9.5833892451e-03
0.110049908378    	9.5823846958e-03
0.110146639835    	9.5814196762e-03
0.110243137075    	9.5803074222e-03
0.110339634315    	9.5790288704e-03
0.110435897339    	9.5776810721e-03
0.110531926714    	9.5763809222e-03
0.110627723009    	9.5752188455e-03
0.110723519303    	9.5742277098e-03
0.110819082516    	9.5733628623e-03
0.110914413216    	9.5724987053e-03
0.111009743915    	9.5714912997e-03
0.111104842101    	9.5702856643e-03
0.11119970834     	9.5689836700e-03
0.111294343197    	9.5679180278e-03
0.111388978055    	9.5673610885e-03
0.111483381532    	9.5671823306e-03
0.111577554193    	9.5669870333e-03
0.111671726854    	9.5665538452e-03
0.1117656687      	9.5660393607e-03
0.111859380297    	9.5657526699e-03
0.111953091893    	9.5657945353e-03
0.11204657324     	9.5659177956e-03
0.112139824902    	9.5657320476e-03
0.112233076565    	9.5650693160e-03
0.112326328228    	9.5641735332e-03
0.11241934964     	9.5635274392e-03
0.112512371052    	9.5634778214e-03
0.112605162212    	9.5645725736e-03
0.112697953373    	9.5656850835e-03
0.112790514283    	9.5657838081e-03
0.112883075193    	9.5650702359e-03
0.112975405851    	9.5644965205e-03
0.11306773651     	9.5646834075e-03
0.113160067169    	9.5655028119e-03
0.113252167001    	9.5664232843e-03
0.113344266833    	9.5670370649e-03
0.113436135838    	9.5672966138e-03
0.113528004844    	9.5674386705e-03
0.113619643023    	9.5677591973e-03
0.113711050955    	9.5644624078e-03
0.113802458887    	9.5601009628e-03
0.113893636572    	9.5585203484e-03
0.113984584591    	9.5603221168e-03
0.11407553261     	9.5632712596e-03
0.114166250962    	9.5652538388e-03
0.114256740227    	9.5659907226e-03
0.114347229492    	9.5664713481e-03
0.114437489671    	9.5676484176e-03
0.114527521342    	9.5697741435e-03
0.114617325086    	9.5724819699e-03
0.114707128829    	9.5751483315e-03
0.114796704644    	9.5772267669e-03
0.11488628046     	9.5785317675e-03
0.114975628346    	9.5792627476e-03
0.115064748885    	9.5798081192e-03
0.115153869424    	9.5805610686e-03
0.115242762614    	9.5816531789e-03
0.115331655804    	9.5829151310e-03
0.115420321646    	9.5841576457e-03
0.115508987488    	9.5854740986e-03
0.115597425981    	9.5871715756e-03
0.11568563771     	9.5894520207e-03
0.115773849438    	9.5862085908e-03
0.115861834401    	9.5858945443e-03
0.115949593181    	9.5873148365e-03
0.116037126361    	9.5883764492e-03
0.11612465954     	9.5881897099e-03
0.116211967119    	9.5872390254e-03
0.116299274697    	9.5865319590e-03
0.116386356675    	9.5865821400e-03
0.116473213634    	9.5870450705e-03
0.116560070594    	9.5871863108e-03
0.116646702535    	9.5865530750e-03
0.116733334477    	9.5858412440e-03
0.1168197414      	9.5849357988e-03
0.116906148324    	9.5836859556e-03
0.116992330229    	9.5825056634e-03
0.117078287702    	9.5819901948e-03
0.117164245176    	9.5822974590e-03
0.117249978217    	9.5829827423e-03
0.117335711258    	9.5834287350e-03
0.117421219868    	9.5833455132e-03
0.117506504632    	9.5829070481e-03
0.117591789397    	9.5824910694e-03
0.117676850317    	9.5823518014e-03
0.117761911238    	9.5824836600e-03
0.117846748313    	9.5827140353e-03
0.117931585389    	9.5828687564e-03
0.11801619862     	9.5828706871e-03
0.118100811851    	9.5827423430e-03
0.118185201238    	9.5825592620e-03
0.118269590625    	9.5824082984e-03
0.118353980011    	9.5823569461e-03
0.118438144958    	9.5824150045e-03
0.118522309905    	9.5825109710e-03
0.118606250412    	9.5825229735e-03
0.118690190919    	9.5823687910e-03
0.118773906986    	9.5820978852e-03
0.118857623053    	9.5818920234e-03
0.11894133912     	9.5819698755e-03
0.119024830144    	9.5824397871e-03
0.119108321168    	9.5783493091e-03
0.119191587148    	9.5735877013e-03
0.119274853129    	9.5688159230e-03
0.119357894066    	9.5640292324e-03
0.119440935004    	9.5592131520e-03
0.119523750898    	9.5543943739e-03
0.119606566792    	9.5495836372e-03
0.119689157644    	9.5448207328e-03
0.119771748495    	9.5401147483e-03
0.119854114303    	9.5354903178e-03
0.119936480111    	9.5309339976e-03
0.120018620875    	9.5264461839e-03
0.12010076164     	9.5219951853e-03
0.120182677362    	9.5175721113e-03
0.120264593083    	9.5131467972e-03
0.120346283761    	9.5087200311e-03
0.12042797444     	9.5042763148e-03
0.120509440075    	9.4998329349e-03
0.12059090571     	9.4953896464e-03
0.120672371345    	9.4909627069e-03
0.120753611314    	9.4865805210e-03
0.120834851282    	9.4822431067e-03
0.120915865584    	9.4779678193e-03
0.120996879886    	9.4737400487e-03
0.121077668522    	9.4695627409e-03
0.121158457157    	9.2393994692e-03
0.121239020126    	8.8385346450e-03
0.121319583095    	8.4179676562e-03
0.121399920397    	7.9807876620e-03
0.121480257699    	7.5279206053e-03
0.121560369335    	7.0626791756e-03
0.121640480971    	6.5853935361e-03
0.12172036694     	6.0985227386e-03
0.121800252909    	5.6014702173e-03
0.121879913211    	5.0930143355e-03
0.121959573514    	4.6027670473e-03
0.122039233816    	5.1255055389e-03
0.122118667811    	6.1427387488e-03
0.122198101806    	7.4307648373e-03
0.122277535801    	8.8925544526e-03
0.122356742842    	9.4060887243e-03
0.122435949882    	9.4024083518e-03
0.122515156923    	9.3987772948e-03
0.122594136357    	9.3951962546e-03
0.122673115791    	9.3916381681e-03
0.122752095225    	9.3880811638e-03
0.122830846395    	9.3845157601e-03
0.122909597565    	9.3809208677e-03
0.122988348735    	9.3772970063e-03
0.123067099905    	9.3736556788e-03
0.123145621479    	9.3700266872e-03
0.123224143054    	9.3664213760e-03
0.123302664628    	9.3628598261e-03
0.123381186203    	9.3593564131e-03
0.123459707778    	9.3559171967e-03
0.123537997725    	9.3525484765e-03
0.123616287673    	9.3492275616e-03
0.12369457762     	9.3459362192e-03
0.123772867568    	9.3426568101e-03
0.123851157515    	9.3393790080e-03
0.123929213762    	9.3361112534e-03
0.124007270008    	9.3328515319e-03
0.124085326254    	9.3296135486e-03
0.124163148097    	9.3264221367e-03
0.12424096994     	9.3232805007e-03
0.124318791783    	9.3201985358e-03
0.124396378515    	9.3171915422e-03
0.124473965247    	9.3142506887e-03
0.124551551979    	9.3113693647e-03
0.124628902884    	9.3085408476e-03
0.12470625379     	9.3057338972e-03
0.124783604696    	9.3029226548e-03
0.124860719055    	9.3000909430e-03
0.124937833414    	9.2972095617e-03
0.125014947772    	9.2942661512e-03
0.125092062131    	9.2912594180e-03
0.125168938483    	9.2882093523e-03
0.125245814834    	9.2851288637e-03
0.125322691185    	9.2820499863e-03
0.12539932879     	9.2790197035e-03
0.125475966395    	9.2760629594e-03
0.125552604       	9.2732036853e-03
0.125629002113    	9.2704571460e-03
0.125705400225    	9.2678031403e-03
0.125781798338    	9.2652167582e-03
0.125857956205    	9.2626737544e-03
0.125934114072    	9.2601333616e-03
0.126010271939    	9.2575696055e-03
0.1260861888      	9.2549765950e-03
0.12616210566     	9.2523450460e-03
0.126238022521    	9.2496854972e-03
0.126313697609    	9.2470267248e-03
0.126389372696    	9.2443872898e-03
0.126465047784    	9.2417973207e-03
0.126540480323    	9.2392926878e-03
0.126615912862    	9.2368845764e-03
0.126691345401    	9.2345802344e-03
0.12676653461     	9.2323805870e-03
0.126841723818    	9.2302594553e-03
0.126916913027    	9.2281880080e-03
0.126991858114    	9.2261378563e-03
0.127066803202    	9.2240685456e-03
0.127141748289    	9.2219534736e-03
0.127216448458    	9.2197875579e-03
0.127291148627    	9.2175699172e-03
0.127365848796    	9.2140914295e-03
0.127440303241    	9.2103935646e-03
0.127514757686    	9.1146640330e-03
0.12758921213     	7.6662606966e-03
0.127663420037    	6.7319671246e-03
0.127737627944    	6.2353761068e-03
0.127811835851    	6.0359732274e-03
0.127885796398    	5.3890854024e-03
0.127959756945    	4.7132771727e-03
0.128033717493    	3.9459869177e-03
0.12810742985     	2.5112809277e-03
0.128181142207    	1.0000000000e-15
0.128254854565    	1.2931128816e-03
0.128328566922    	7.5614861756e-04
0.128402029407    	8.4773713073e-07
0.128475491892    	1.0000000000e-15
0.128548954377    	9.1564569852e-03
0.128622416862    	9.1529209846e-03
0.128695627763    	9.1494491823e-03
0.128768838665    	9.0208989243e-03
0.128842049566    	8.8963293080e-03
0.128915260467    	8.9167667470e-03
0.128988218043    	7.0720265423e-03
0.129061175619    	4.1214457859e-03
0.129134133196    	5.8659305585e-04
0.129207090772    	1.0000000000e-15
0.129280048348    	9.1233745614e-03
0.129352749933    	9.1202493263e-03
0.129425451518    	9.1171496384e-03
0.129498153102    	9.1140721089e-03
0.129570854687    	9.1110082662e-03
0.129643556272    	9.1079445351e-03
0.129715999132    	9.1048746414e-03
0.129788441992    	9.1017693897e-03
0.129860884852    	6.7265585534e-03
0.129933327713    	2.8453011937e-03
0.130005770573    	1.0000000000e-15
0.130078213433    	7.5513548027e-03
0.130150393819    	7.5332686187e-03
0.130222574205    	7.6415365624e-03
0.130294754592    	7.8391547540e-03
0.130366934978    	8.0998697716e-03