# Probe 0 (3.4 0.005 1.5)
# Probe 1 (4.4 0.005 1.5)
# Probe 2 (5.4 0.005 1.5)
# Probe 3 (5.9 0.005 1.5)
# Probe 4 (6.2 0.005 1.5)
# Probe 5 (6.7 0.005 1.5)
# Probe 6 (8.2 0.005 1.5)
#           Probe                 0                 1                 2                 3                 4                 5                 6
#            Time
    1.1999904e-06       3.057747379       3.302731404       3.343206125        3.34787439       3.349223809       3.350304077       3.350998255
  2.639965056e-06       3.057745396       3.302729261       3.343203957       3.347872219       3.349221636       3.350301904       3.350996082
  4.367944597e-06       3.057743016       3.302726691       3.343201355       3.347869613       3.349219029       3.350299296       3.350993474
  6.441505713e-06        3.05774016       3.302723606       3.343198232       3.347866486       3.349215901       3.350296167       3.350990344
   8.92973777e-06       3.057736733       3.302719905       3.343194485       3.347862734       3.349212148       3.350292412       3.350986588
  1.191552707e-05       3.057732621       3.302715463       3.343189989       3.347858232       3.349207644       3.350287907       3.350982082
  1.549838863e-05       3.057727687       3.302710134       3.343184595       3.347852829       3.349202239       3.350282501       3.350976674
  1.979776087e-05       3.057721766       3.302703739       3.343178121       3.347846347       3.349195754       3.350276013       3.350970186
  2.495674128e-05       3.057714662       3.302696065       3.343170354       3.347838569       3.349187973        3.35026823         3.3509624
  3.114713435e-05       3.057706138       3.302686858       3.343161034       3.347829236       3.349178636        3.35025889       3.350953059
  3.857523794e-05        3.05769591       3.302675811       3.343149851       3.347818038       3.349167434       3.350247684        3.35094185
  4.748896225e-05       3.057683638       3.302662556       3.343136434       3.347804601       3.349153992       3.350234237       3.350928401
  5.818543142e-05       3.057668913       3.302646651       3.343120334       3.347788479       3.349137863       3.350218103       3.350912264
  7.102064463e-05       3.057651245       3.302627568       3.343101017       3.347769135       3.349118511       3.350198745       3.350892902
  8.642131685e-05       3.057630049       3.302604673       3.343077842       3.347745927       3.349095294       3.350175521       3.350869673
  0.0001049009832       3.057604619       3.302577206       3.343050038       3.347718085        3.34906744       3.350147658       3.350841804
  0.0001270765827        3.05757411       3.302544252        3.34301668        3.34768468       3.349034022       3.350114229       3.350808368
  0.0001536896689       3.057537503       3.302504712       3.342976656         3.3476446       3.348993926        3.35007412       3.350768251
  0.0001856219625       3.057493593       3.302457283       3.342928645       3.347596523       3.348945829       3.350026008       3.350720129
  0.0002239407148       3.057440919       3.302400387       3.342871052       3.347538849       3.348888132       3.349968292       3.350662401
  0.0002699019884       3.057377766        3.30233217       3.342801999         3.3474697       3.348818955       3.349899093       3.350593188
  0.0003250351347       3.057302052        3.30225038       3.342719206       3.347386791       3.348736013       3.349816124       3.350510202
  0.0003911802278        3.05721128       3.302152309       3.342619934        3.34728738       3.348636562       3.349716641       3.350410698
  0.0004705543394       3.057102459       3.302034705       3.342500888       3.347168169       3.348517302       3.349597343       3.350291375
  0.0005658032734       3.056972056       3.301893696       3.342358151       3.347025232       3.348374309       3.349454303       3.350148305
  0.0006799700095       3.056816083       3.301724848       3.342187234       3.346854076       3.348203083       3.349283023       3.349976989
  0.0008169700928       3.056629539       3.301522469       3.341982375       3.346648932       3.347997856       3.349077729       3.349771653
  0.0009814618316       3.056406755       3.301279825       3.341736757       3.346402971       3.347751796       3.348831589       3.349525463
   0.001179117227       3.056141259       3.300988757        3.34144212       3.346107923        3.34745663       3.348536328        3.34923014
   0.001416111804       3.055826605       3.300640472       3.341089562       3.345754874       3.347103438       3.348183023       3.348876762
   0.001666544217       3.055498263       3.300273287       3.340717865        3.34538266       3.346731075       3.347810539       3.348504201
   0.001916976631       3.055173261       3.299906978       3.340347036       3.345011317       3.346359582       3.347438926       3.348132511
   0.002167409044       3.054849883       3.299541563       3.339977073       3.344640842       3.345988958       3.347068183       3.347761691
   0.002417841458       3.054525809       3.299177075       3.339607972       3.344271233         3.3456192       3.346698306       3.347391738
   0.002668273871       3.054198746       3.298813565       3.339239731       3.343902485       3.345250305       3.346329292       3.347022647
   0.002918706284       3.053867014       3.298451108       3.338872346       3.343534596        3.34488227       3.345961138       3.346654417
   0.003169138698       3.053529939       3.298089805       3.338505817       3.343167565       3.344515093       3.345593844       3.346287047
   0.003419571111       3.053187942       3.297729763       3.338140136       3.342801381       3.344148765         3.3452274       3.345920526
   0.003670003524       3.052842506       3.297371109       3.337775305       3.342436045       3.343783287       3.344861805       3.345554856
   0.003920435938       3.052495585       3.297013951       3.337411326       3.342071553       3.343418653       3.344497057       3.345190033
   0.004170868351       3.052149082       3.296658362       3.337048202       3.341707902       3.343054862       3.344133152       3.344826053
   0.004421300765       3.051804543       3.296304351       3.336685939       3.341345089       3.342691909       3.343770087       3.344462914
   0.004671733178       3.051463183       3.295951846       3.336324548       3.340983119       3.342329796       3.343407864       3.344100617
   0.004922165591       3.051125843       3.295600639        3.33596403        3.34062198       3.341968509       3.343046469       3.343739149
   0.005172598005       3.050792738       3.295250404       3.335604405       3.340261679       3.341608052       3.342685903       3.343378512
   0.005423030418       3.050463334       3.294900681       3.335245696       3.339902219       3.341248424       3.342326164       3.343018702
   0.005673462831       3.050136683       3.294550927       3.334887934       3.339543601       3.340889622       3.341967249       3.342659717
   0.005923895245       3.049811923       3.294200589       3.334531154       3.339185832       3.340531649       3.341609154       3.342301554
   0.006174327658       3.049488526       3.293849212       3.334175398       3.338828914       3.340174505       3.341251876       3.341944209
   0.006424760072       3.049166372       3.293496554       3.333820709       3.338472857       3.339818193       3.340895413       3.341587679
   0.006675192485       3.048845612       3.293142657       3.333467128       3.338117673       3.339462714       3.340539764       3.341231962
   0.006925624898        3.04852644       3.292787884       3.333114686        3.33776338       3.339108072       3.340184926       3.340877054
   0.007176057312       3.048208923       3.292432883       3.332763397           3.33741       3.338754271       3.339830901       3.340522952
   0.007426489725       3.047892951       3.292078516       3.332413253       3.337057569       3.338401328       3.339477697       3.340169662
   0.007676922139       3.047578237       3.291725688       3.332064185       3.336706098       3.338049241       3.339125296       3.339817163
   0.007927354552       3.047264446        3.29137526       3.331716102       3.336355626       3.337698035       3.338773709       3.339465461
   0.008177786965       3.046951281       3.291027885       3.331368838        3.33600616       3.337347711       3.338422917       3.339114533
   0.008428219379       3.046638427       3.290683998       3.331022265       3.335657782       3.336998353       3.338072983       3.338764437
   0.008678651792       3.046325287       3.290343591       3.330676112       3.335310436       3.336649928       3.337723853       3.338415109
   0.008929084205       3.046011258       3.290006443       3.330330201       3.334964133       3.336302483       3.337375556       3.338066565
   0.009179516619       3.045695828       3.289672082       3.329984384       3.334618836        3.33595604       3.337028103       3.337718804
   0.009429949032       3.045378656       3.289339837       3.329638596       3.334274481       3.335610615       3.336681509       3.337371822
   0.009680381446       3.045059732        3.28900889        3.32929289       3.333930977       3.335266212       3.336335791       3.337025617
   0.009930813859       3.044739405       3.288678312       3.328947431        3.33358821       3.334922817       3.335990969       3.336680185
    0.01018124627       3.044418306       3.288347133       3.328602496       3.333246053       3.334580395       3.335647063       3.336335524
    0.01043167869       3.044097304       3.288014439       3.328258439       3.332904383       3.334238889       3.335304093       3.335991633
     0.0106821111       3.043777392       3.287679495        3.32791564       3.332563103       3.333898215       3.334962076       3.335648508
    0.01093254351       3.043459563       3.287341864       3.327574424       3.332222152       3.333558273       3.334621021       3.335306148
    0.01118297593       3.043144681       3.287001494       3.327234981       3.331881523       3.333218949        3.33428093       3.334964552
    0.01143340834       3.042833382        3.28665881       3.326897298       3.331541269       3.332880131        3.33394179       3.334623718
    0.01168384075       3.042525968         3.2863147       3.326561136       3.331201491       3.332541723       3.333603577       3.334283645
    0.01193427317       3.042222348        3.28597036       3.326226032       3.330862321       3.332203661       3.333266245       3.333944333
    0.01218470558       3.041922022       3.285627204       3.325891368       3.330523905       3.331865931       3.332929746       3.333605794
    0.01243513799       3.041624104         3.2852866       3.325556427       3.330186311       3.331528519       3.332593971       3.333268002
    0.01268557041       3.041327532       3.284949726       3.325220582       3.329849578       3.331191485       3.332258843       3.332930975
    0.01293600282       3.041031253       3.284617335       3.324883385       3.329513644       3.330854893       3.331924263       3.332594715
    0.01318643523       3.040734416       3.284289671       3.324544699       3.329178347        3.33051881       3.331590135       3.332259227
    0.01343686765       3.040436468        3.28396647       3.324204775       3.328843462       3.330183283       3.331256373       3.331924519
    0.01368730006       3.040137194       3.283647072       3.323864268       3.328508742       3.329848324       3.330922906       3.331590599
    0.01393773247       3.039836726       3.283330587        3.32352417       3.328173979       3.329513903       3.330589689       3.331257475
    0.01418816489       3.039535489       3.283016021       3.323185688       3.327839081       3.329179962       3.330256701       3.330925159
     0.0144385973        3.03923412       3.282702384       3.322850054        3.32750411       3.328846441       3.329923948       3.330593661
    0.01468902971       3.038933331       3.282388702       3.322518308        3.32716934       3.328513305       3.329591461       3.330262993
    0.01493946213       3.038633719       3.282074126       3.322191079       3.326835241       3.328180567       3.329259294       3.329933162
    0.01518989454       3.038335568       3.281758025       3.321868446       3.326502434       3.327848338       3.328927523       3.329604178
    0.01544032695       3.038038718       3.281440072       3.321549861       3.326171598       3.327516844       3.328596242       3.329276041
    0.01569075937       3.037742489       3.281120305        3.32123424       3.325843356       3.327186412        3.32826557       3.328948748
    0.01594119178        3.03744579       3.280799082       3.320920174        3.32551816       3.326857443       3.327935639       3.328622286
    0.01619162419       3.037147415       3.280476829       3.320606145       3.325196172       3.326530352       3.327606591        3.32829663
    0.01644205661        3.03684641       3.280153997       3.320290779       3.324877195       3.326205493       3.327278589       3.327971744
    0.01669248902       3.036542365       3.279832978       3.319973621       3.324560683       3.325883086       3.326951807       3.327647577
    0.01694292143       3.036235543       3.279515434       3.319654503       3.324245825       3.325563151       3.326626414       3.327324066
    0.01719335385       3.035926863       3.279199368       3.319333967       3.323931619       3.325245478       3.326302564       3.327001135
    0.01744378626       3.035617758       3.278882648       3.319013203       3.323617039       3.324929629       3.325980374         3.3266787
    0.01769421867       3.035309953       3.278564721       3.318693113       3.323301206       3.324614953       3.325659902       3.326356677
    0.01794465109       3.035005164       3.278244147       3.318373828       3.322983577       3.324300687       3.325341126       3.326034986
     0.0181950835       3.034704812       3.277919821       3.318054647       3.322664038       3.323986028       3.325023927       3.325713564
    0.01844551591       3.034409799       3.277591794       3.317734206       3.322342939       3.323670269       3.324708089       3.325392372
    0.01869594833       3.034120406       3.277261317       3.317410933       3.322020987       3.323352953       3.324393302       3.325071405
    0.01894638074        3.03383627       3.276930449       3.317083651       3.321699018       3.323033973       3.324079183       3.324750693
    0.01919681315       3.033556466        3.27660156       3.316752179       3.321377752       3.322713626       3.323765334        3.32443033
    0.01944724557       3.033279581       3.276276789       3.316417558       3.321057461       3.322392478       3.323451291       3.324110383
    0.01969767798       3.033004072       3.275957798       3.316081972       3.320737999       3.322071343       3.323136719       3.323791019
    0.01994811039       3.032728513       3.275645552       3.315748115       3.320418769       3.321750992       3.322821385       3.323472408
    0.02019854281       3.032451855       3.275340332       3.315418786       3.320098971       3.321431972       3.322505225       3.323154732
    0.02044897522       3.032173512       3.275041622       3.315096491       3.319777958       3.321114457        3.32218838       3.322838164
    0.02069940763       3.031893332       3.274748187        3.31478285       3.319455609       3.320798203       3.321871178       3.322522848
    0.02094984005        3.03161145       3.274458275        3.31447808       3.319132583       3.320482651       3.321554085        3.32220888
    0.02120027246       3.031328112       3.274169799        3.31418086         3.3188103       3.320167167       3.321237619       3.321896294
    0.02145070487        3.03104354       3.273880687       3.313888643       3.318490647       3.319851332       3.320922243       3.321585066
    0.02170113729       3.030757843       3.273589201       3.313598227       3.318175533       3.319535171       3.320608274       3.321275109
     0.0219515697       3.030471057       3.273294206       3.313306333       3.317866325       3.319219254       3.320295814       3.320966286
    0.02220200211       3.030183214       3.272995304       3.313010312        3.31756336       3.318904645        3.31998474       3.320658419
    0.02245243453       3.029894426       3.272692826       3.312708634       3.317265739        3.31859262       3.319674762       3.320351296
    0.02270286694       3.029604941       3.272387423        3.31240111       3.316971568       3.318284232       3.319365528        3.32004469
    0.02295329935       3.029315191       3.272079709       3.312088755       3.316678305       3.317979937        3.31905675       3.319738374
    0.02320373177       3.029025805       3.271770434       3.311773427       3.316383275       3.317679426       3.318748301       3.319432151
    0.02345416418       3.028737602       3.271460324       3.311457335       3.316084302       3.317381627       3.318440272       3.319125873
    0.02370459659       3.028451536       3.271150006       3.311142505       3.315780207        3.31708486       3.318132939       3.318819463
    0.02395502901         3.0281686       3.270840044       3.310830342       3.315471053       3.316787234       3.317826656       3.318512925
    0.02420546142       3.027889689         3.2705311       3.310521447       3.315158045       3.316487135       3.317521725       3.318206354
    0.02445589384        3.02761545       3.270224094       3.310215698       3.314843163       3.316183634       3.317218271       3.317899917
    0.02470632625       3.027346132       3.269920048       3.309912459       3.314528655       3.315876703       3.316916177       3.317593846
    0.02495675866       3.027081465       3.269619768       3.309610885       3.314216525        3.31556718       3.316615093       3.317288402
    0.02520719108       3.026820568       3.269323737       3.309310223       3.313908119       3.315256521       3.316314523       3.316983854
    0.02545762349       3.026562033       3.269032045        3.30901002       3.313603925       3.314946442       3.316013974       3.316680436
     0.0257080559       3.026304167       3.268744343       3.308710174       3.313303592       3.314638489        3.31571309       3.316378318
    0.02595848832       3.026045232       3.268459878       3.308410868       3.313006176       3.314333701       3.315411727       3.316077575
    0.02620892073       3.025783667       3.268177645       3.308112421        3.31271048       3.314032427       3.315109978       3.315778168
    0.02645935314       3.025518239       3.267896544       3.307815114       3.312415408       3.313734331       3.314808146       3.315479943
    0.02670978556       3.025248306        3.26761546       3.307519064        3.31212024        3.31343859       3.314506648        3.31518264
    0.02696021797       3.024973901       3.267333387       3.307224175       3.311824729       3.313144182       3.314205916       3.314885928
    0.02721065038       3.024695718        3.26704944       3.306930175       3.311529033       3.312850187       3.313906292       3.314589446
     0.0274610828       3.024414947       3.266762934       3.306636731       3.311233532       3.312556009       3.313607972       3.314292862
    0.02771151521       3.024133035       3.266473469       3.306343567       3.310938629       3.312261468       3.313311004       3.313995928
    0.02796194762       3.023851413       3.266180935       3.306050523       3.310644571       3.311966771       3.313015321       3.313698531
    0.02821238004        3.02357127       3.265885477       3.305757549       3.310351361       3.311672363       3.312720798       3.313400724
    0.02846281245       3.023293416       3.265587538       3.305464653       3.310058778       3.311378729       3.312427309       3.313102728
    0.02871324486       3.023018228       3.265287837       3.305171813       3.309766479       3.311086203       3.312134771       3.312804905
    0.02896367728       3.022745691       3.264987316       3.304878908       3.309474138       3.310794843       3.311843151       3.312507705
    0.02921410969       3.022475484        3.26468705         3.3045857       3.309181555        3.31050442       3.311552434         3.3122116
     0.0294645421       3.022207093       3.264388147       3.304291885       3.308888706       3.310214486       3.311262586       3.311916999
    0.02971497452       3.021939918       3.264091627       3.303997196       3.308595709       3.309924518       3.310973513       3.311624183
    0.02996540693       3.021673375       3.263798331       3.303701522       3.308302758        3.30963407       3.310685034       3.311333254
    0.03021583934       3.021406994       3.263508882       3.303405024       3.308010057       3.309342924       3.310396925       3.311044147
    0.03046627176        3.02114039        3.26322347       3.303108032       3.307717619       3.309051011       3.310108811        3.31075653
    0.03071670417       3.020873451       3.262942071         3.3028112       3.307425446        3.30875858       3.309820417       3.310470039
    0.03096713658       3.020606265       3.262664505       3.302515271       3.307133445        3.30846598       3.309531505       3.310184215
      0.031217569        3.02033913       3.262390345       3.302220981       3.306841532       3.308173583       3.309241948       3.309898609
    0.03146800141       3.020072491       3.262118913        3.30192895       3.306549724       3.307881692       3.308951765       3.309612849
    0.03171843382       3.019806843       3.261849381       3.301639611       3.306258184       3.307590498       3.308661125       3.309326698
    0.03196886624       3.019542627       3.261580869       3.301353197       3.305967227       3.307300082       3.308370321       3.309040086
    0.03221929865       3.019280137       3.261312549        3.30106976       3.305677268        3.30701047       3.308079725       3.308753111
    0.03246973106       3.019019476       3.261043713       3.300789231       3.305388747       3.306721691       3.307789725        3.30846602
    0.03272016348       3.018760563       3.260773839       3.300511452       3.305102058        3.30643384       3.307500674       3.308179155
    0.03297059589       3.018503175       3.260502613       3.300236184       3.304817493       3.306147093       3.307212837         3.3078929
     0.0332210283        3.01824701       3.260229928       3.299963074       3.304535214       3.305861702       3.306926367       3.307607601
    0.03347146072       3.017991753       3.259955828       3.299691599       3.304255256       3.305577936       3.306641302       3.307323511
    0.03372189313       3.017737135       3.259680432       3.299421046       3.303977532       3.305296028       3.306357582       3.307040736
    0.03397232554       3.017482971       3.259403888       3.299150509       3.303701847       3.305016113       3.306075087       3.306759227
    0.03422275796       3.017229179       3.259126336       3.298878955       3.303427887       3.304738195        3.30579368       3.306478785
    0.03447319037       3.016975744       3.258847911       3.298605346       3.303155215       3.304462132       3.305513258       3.306199108
    0.03472362278       3.016722653        3.25856884       3.298328814       3.302883256        3.30418764       3.305233771       3.305919847
     0.0349740552       3.016469814       3.258289443       3.298048851        3.30261132       3.303914321       3.304955239       3.305640674
    0.03522448761       3.016217015       3.258010139       3.297765468       3.302338652       3.303641694       3.304677729       3.305361341
    0.03547492002       3.015963927       3.257731381       3.297479255       3.302064517       3.303369225       3.304401321       3.305081724
    0.03572535244       3.015710175        3.25745357       3.297191325       3.301788332       3.303096376       3.304126059       3.304801842
    0.03597578485       3.015455435       3.257177008       3.296903102        3.30150978       3.302822646       3.303851899       3.304521836
    0.03622621726       3.015199585       3.256901853       3.296616036       3.301228917        3.30254763       3.303578684       3.304241944
    0.03647664968       3.014942801       3.256628099       3.296331303       3.300946205       3.302271091       3.303306128       3.303962447
    0.03672708209       3.014685613       3.256355651       3.296049586       3.300662461       3.301993003       3.303033846       3.303683622
     0.0369775145       3.014428924       3.256084426       3.295770999       3.300378732       3.301713595       3.302761405         3.3034057
    0.03722794692       3.014173878       3.255814446       3.295495164       3.300096111       3.301433332         3.3024884        3.30312884
    0.03747837933       3.013921365        3.25554588       3.295221419       3.299815528       3.301152873       3.302214531       3.302853115
    0.03772881174       3.013671985       3.255279028        3.29494906       3.299537593        3.30087297       3.301939671       3.302578527
    0.03797924416       3.013425911       3.255014234       3.294677528       3.299262495       3.300594345       3.301663908       3.302305015
    0.03822967657       3.013182519       3.254751755       3.294406493        3.29899001       3.300317567        3.30138754       3.302032482
    0.03848010898       3.012940483       3.254491645        3.29413584         3.2987196       3.300042951       3.301111037       3.301760813
     0.0387305414       3.012698315       3.254233701       3.293865589       3.298450559       3.299770511        3.30083496       3.301489891
    0.03898097381       3.012454401       3.253977485       3.293595804        3.29818217       3.299499975       3.300559868       3.301219609
    0.03923140622       3.012207893       3.253722389       3.293326525       3.297913837       3.299230862       3.300286213       3.300949874
    0.03948183864       3.011958856       3.253467735       3.293057755       3.297645161       3.298962592       3.300014272       3.300680609
    0.03973227105       3.011707994       3.253212846       3.292789478       3.297375956        3.29869461       3.299744096       3.300411752
    0.03998270346       3.011456288       3.252957097       3.292521686       3.297106235       3.298426485       3.299475518        3.30014326
    0.04023313588       3.011204543       3.252699937       3.292254386       3.296836166        3.29815798       3.299208187       3.299875107
    0.04048356829       3.010953228       3.252440938       3.291987592       3.296566025       3.297889062       3.298941647       3.299607283
     0.0407340007       3.010702462        3.25217986        3.29172131       3.296296152       3.297619881       3.298675423       3.299339793
    0.04098443312       3.010452502       3.251916725       3.291455526       3.296026901       3.297350714       3.298409104       3.299072656
    0.04123486553       3.010203252       3.251651809       3.291190216       3.295758598       3.297081894       3.298142412       3.298805901
    0.04148529795       3.009954885       3.251385632       3.290925363       3.295491488       3.296813739       3.297875243       3.298539559
    0.04173573036       3.009708117       3.251118929       3.290660974       3.295225704       3.296546498       3.297607666       3.298273659
    0.04198616277       3.009463046       3.250852541       3.290397064       3.294961248       3.296280315       3.297339904       3.298008225
    0.04223659519       3.009219003       3.250587275       3.290133626        3.29469801       3.296015218       3.297072277       3.297743273
     0.0424870276       3.008975608       3.250323764       3.289870593         3.2944358       3.295751136       3.296805142       3.297478811
    0.04273746001       3.008732462       3.250062504       3.289607823       3.294174396       3.295487933       3.296538824       3.297214842
    0.04298789243       3.008489196       3.249804032       3.289345122       3.293913582       3.295225461       3.296273564       3.296951368
    0.04323832484       3.008245273        3.24954874       3.289082314       3.293653163       3.294963602       3.296009486       3.296688387
    0.04348875725       3.008000188       3.249296723       3.288819327       3.293392966       3.294702304       3.295746588       3.296425896
    0.04373918967       3.007753384        3.24904774       3.288556265       3.293132835       3.294441574       3.295484774       3.296163879
    0.04398962208       3.007504693       3.248801213       3.288293439       3.292872626        3.29418146       3.295223889       3.295902306
    0.04424005449       3.007254514       3.248556288       3.288031334       3.292612235       3.293921998       3.294963781       3.295641128
    0.04449048691       3.007003905       3.248311968       3.287770557       3.292351636       3.293663169       3.294704338       3.295380277
    0.04474091932       3.006754034       3.248067272       3.287511742       3.292090931       3.293404873       3.294445519       3.295119674
    0.04499135173       3.006506243       3.247821411       3.287255458       3.291830379        3.29314695       3.294187344       3.294859247
    0.04524178415       3.006261154       3.247573944       3.287002164       3.291570396        3.29288923       3.293929868       3.294598943