# Probe 0 (4.8 0.005 1.5)
#           Probe                 0
#            Time
    1.1999904e-06                 1
  2.639965056e-06                 1
  4.367944597e-06                 1
  6.441505713e-06                 1
   8.92973777e-06                 1
  1.191552707e-05                 1
  1.549838863e-05                 1
  1.979776087e-05                 1
  2.495674128e-05                 1
  3.114713435e-05                 1
  3.857523794e-05                 1
  4.748896225e-05                 1
  5.818543142e-05                 1
  7.102064463e-05                 1
  8.642131685e-05                 1
  0.0001049009832                 1
  0.0001270765827                 1
  0.0001536896689                 1
  0.0001856219625                 1
  0.0002239407148                 1
  0.0002699019884                 1
  0.0003250351347                 1
  0.0003911802278                 1
  0.0004705543394                 1
  0.0005658032734                 1
  0.0006799700095                 1
  0.0008169700928                 1
  0.0009814618316                 1
   0.001179117227                 1
   0.001416111804                 1
   0.001666544217                 1
   0.001916976631                 1
   0.002167409044                 1
   0.002417841458                 1
   0.002668273871                 1
   0.002918706284                 1
   0.003169138698                 1
   0.003419571111                 1
   0.003670003524                 1
   0.003920435938                 1
   0.004170868351                 1
   0.004421300765                 1
   0.004671733178                 1
   0.004922165591                 1
   0.005172598005                 1
   0.005423030418                 1
   0.005673462831                 1
   0.005923895245                 1
   0.006174327658                 1
   0.006424760072                 1
   0.006675192485                 1
   0.006925624898                 1
   0.007176057312                 1
   0.007426489725                 1
   0.007676922139                 1
   0.007927354552                 1
   0.008177786965                 1
   0.008428219379                 1
   0.008678651792                 1
   0.008929084205                 1
   0.009179516619                 1
   0.009429949032                 1
   0.009680381446                 1
   0.009930813859                 1
    0.01018124627                 1
    0.01043167869                 1
     0.0106821111                 1
    0.01093254351                 1
    0.01118297593                 1
    0.01143340834                 1
    0.01168384075                 1
    0.01193427317                 1
    0.01218470558                 1
    0.01243513799                 1
    0.01268557041                 1
    0.01293600282                 1
    0.01318643523                 1
    0.01343686765                 1
    0.01368730006                 1
    0.01393773247                 1
    0.01418816489                 1
     0.0144385973                 1
    0.01468902971                 1
    0.01493946213                 1
    0.01518989454                 1
    0.01544032695                 1
    0.01569075937                 1
    0.01594119178                 1
    0.01619162419                 1
    0.01644205661                 1
    0.01669248902                 1
    0.01694292143                 1
    0.01719335385                 1
    0.01744378626                 1
    0.01769421867                 1
    0.01794465109                 1
     0.0181950835                 1
    0.01844551591                 1
    0.01869594833                 1
    0.01894638074                 1
    0.01919681315                 1
    0.01944724557                 1
    0.01969767798                 1
    0.01994811039                 1
    0.02019854281                 1
    0.02044897522                 1
    0.02069940763                 1
    0.02094984005                 1
    0.02120027246                 1
    0.02145070487                 1
    0.02170113729                 1
     0.0219515697                 1
    0.02220200211                 1
    0.02245243453                 1
    0.02270286694                 1
    0.02295329935                 1
    0.02320373177                 1
    0.02345416418                 1
    0.02370459659                 1
    0.02395502901                 1
    0.02420546142                 1
    0.02445589384                 1
    0.02470632625                 1
    0.02495675866                 1
    0.02520719108                 1
    0.02545762349                 1
     0.0257080559                 1
    0.02595848832                 1
    0.02620892073                 1
    0.02645935314                 1
    0.02670978556                 1
    0.02696021797                 1
    0.02721065038                 1
     0.0274610828                 1
    0.02771151521                 1
    0.02796194762                 1
    0.02821238004                 1
    0.02846281245                 1
    0.02871324486                 1
    0.02896367728                 1
    0.02921410969                 1
     0.0294645421                 1
    0.02971497452                 1
    0.02996540693                 1
    0.03021583934                 1
    0.03046627176                 1
    0.03071670417                 1
    0.03096713658                 1
      0.031217569                 1
    0.03146800141                 1
    0.03171843382                 1
    0.03196886624                 1
    0.03221929865                 1
    0.03246973106                 1
    0.03272016348                 1
    0.03297059589                 1
     0.0332210283                 1
    0.03347146072                 1
    0.03372189313                 1
    0.03397232554                 1
    0.03422275796                 1
    0.03447319037                 1
    0.03472362278                 1
     0.0349740552                 1
    0.03522448761                 1
    0.03547492002                 1
    0.03572535244                 1
    0.03597578485                 1
    0.03622621726                 1
    0.03647664968                 1
    0.03672708209                 1
     0.0369775145                 1
    0.03722794692                 1
    0.03747837933                 1
    0.03772881174                 1
    0.03797924416                 1
    0.03822967657                 1
    0.03848010898                 1
     0.0387305414                 1
    0.03898097381                 1
    0.03923140622                 1
    0.03948183864                 1
    0.03973227105                 1
    0.03998270346                 1
    0.04023313588                 1
    0.04048356829                 1
     0.0407340007                 1
    0.04098443312                 1
    0.04123486553                 1
    0.04148529795                 1
    0.04173573036                 1
    0.04198616277                 1
    0.04223659519                 1
     0.0424870276                 1
    0.04273746001                 1
    0.04298789243                 1
    0.04323832484                 1
    0.04348875725                 1
    0.04373918967                 1
    0.04398962208                 1
    0.04424005449                 1
    0.04449048691                 1
    0.04474091932                 1
    0.04499135173                 1
    0.04524178415                 1
    0.04549221656                 1
    0.04574264897                 1
    0.04599308139                 1
     0.0462435138                 1
    0.04649394621                 1
    0.04674437863                 1
    0.04699481104                 1
    0.04724524345                 1
    0.04749567587                 1
    0.04774610828                 1
    0.04799654069                 1
    0.04824697311                 1
    0.04849740552                 1
    0.04874783793                 1
    0.04899827035                 1
    0.04924870276                 1
    0.04949913517                 1
    0.04974956759                 1
             0.05                 1
          0.05025                 1
           0.0505                 1
          0.05075                 1
            0.051                 1
          0.05125                 1
           0.0515                 1
          0.05175                 1
            0.052                 1
          0.05225                 1
           0.0525                 1
          0.05275                 1
            0.053                 1
          0.05325                 1
           0.0535                 1
          0.05375                 1
            0.054                 1
          0.05425                 1
           0.0545                 1
          0.05475                 1
            0.055                 1
          0.05525                 1
           0.0555                 1
          0.05575                 1
            0.056                 1
          0.05625                 1
           0.0565                 1
          0.05675                 1
            0.057                 1
          0.05725                 1
           0.0575                 1
          0.05775                 1
            0.058                 1
          0.05825                 1
           0.0585                 1
          0.05875                 1
            0.059                 1
          0.05925                 1
           0.0595                 1
          0.05975                 1
             0.06                 1
          0.06025                 1
           0.0605                 1
          0.06075                 1
            0.061                 1
          0.06125                 1
           0.0615                 1
          0.06175                 1
            0.062                 1
          0.06225                 1
           0.0625                 1
          0.06275                 1
            0.063                 1
          0.06325                 1
           0.0635                 1
          0.06375                 1
            0.064                 1
          0.06425                 1
           0.0645                 1
          0.06475                 1
            0.065                 1
          0.06525                 1
           0.0655                 1
          0.06575                 1
            0.066                 1
          0.06625                 1
           0.0665                 1
          0.06675                 1
            0.067                 1
          0.06725                 1
           0.0675                 1
          0.06775                 1
            0.068                 1
          0.06825                 1
           0.0685                 1
          0.06875                 1
            0.069                 1
          0.06925                 1
           0.0695      0.9999999999
          0.06975      0.9999999999
             0.07      0.9999999999
          0.07025      0.9999999999
           0.0705      0.9999999999
          0.07075      0.9999999999
            0.071      0.9999999999
          0.07125      0.9999999999
           0.0715      0.9999999999
          0.07175      0.9999999999
            0.072      0.9999999999
          0.07225      0.9999999999
           0.0725      0.9999999998
          0.07275      0.9999999998
            0.073      0.9999999998
          0.07325      0.9999999998
           0.0735      0.9999999998
          0.07375      0.9999999998
            0.074      0.9999999997
          0.07425      0.9999999997
           0.0745      0.9999999997
          0.07475      0.9999999997
            0.075      0.9999999996
    0.07524752475      0.9999999996
     0.0754950495      0.9999999995
    0.07574009901      0.9999999995
    0.07598269802      0.9999999995
    0.07622529703      0.9999999994
    0.07646544554      0.9999999994
    0.07670559406      0.9999999993
    0.07694329208      0.9999999992
     0.0771809901      0.9999999992
    0.07741623762      0.9999999991
    0.07765148515       0.999999999
    0.07788428218      0.9999999989
    0.07811707921      0.9999999988
    0.07834742574      0.9999999987
    0.07857777228      0.9999999986
    0.07880566832      0.9999999985
    0.07903356436      0.9999999984
     0.0792614604      0.9999999983
     0.0794868793      0.9999999981
    0.07971229821       0.999999998
    0.07993523999      0.9999999978
    0.08015818177      0.9999999976
    0.08037864642      0.9999999975
    0.08059911106      0.9999999973
    0.08081709858       0.999999997
     0.0810350861      0.9999999968
    0.08125059648      0.9999999966
    0.08146365788      0.9999999963
    0.08167671929       0.999999996
    0.08188733171      0.9999999957
     0.0820955233      0.9999999954
    0.08230371489      0.9999999951
    0.08250948565      0.9999999947
     0.0827152564      0.9999999943
    0.08291860633      0.9999999939
    0.08312195625      0.9999999935
    0.08332288534       0.999999993
    0.08352381444      0.9999999925
    0.08372474353       0.999999992
    0.08392322227      0.9999999914
      0.084121701      0.9999999909
    0.08432017974      0.9999999902
    0.08451617749      0.9999999896
    0.08471217525      0.9999999889
      0.084908173      0.9999999881
    0.08510165796      0.9999999873
    0.08529514292      0.9999999865
    0.08548862789      0.9999999856
    0.08568211285      0.9999999846
    0.08587301801      0.9999999836
    0.08606392317      0.9999999826
    0.08625482833      0.9999999815
     0.0864457335      0.9999999803
     0.0866339872       0.999999979
     0.0868222409      0.9999999777
     0.0870104946      0.9999999762
     0.0871987483      0.9999999747
    0.08738427369      0.9999999732
    0.08756979908      0.9999999715
    0.08775532446      0.9999999697
    0.08793808081      0.9999999679
    0.08812083716      0.9999999659
    0.08830359352      0.9999999639
    0.08848634987      0.9999999617
    0.08866625065      0.9999999594
    0.08884615143       0.999999957
    0.08902605222      0.9999999545
      0.089205953      0.9999999518
    0.08938290459       0.999999949
    0.08955985618      0.9999999461
    0.08973680777       0.999999943
    0.08991375936      0.9999999397
    0.09008766006      0.9999999363
    0.09026156076      0.9999999328
    0.09043546146       0.999999929
    0.09060936216       0.999999925
    0.09078010103      0.9999999209
     0.0909508399      0.9999999165
    0.09112157877      0.9999999119
    0.09129231764       0.999999907
    0.09146305651      0.9999999019
    0.09163044756      0.9999998966
    0.09179783861       0.999999891
    0.09196522966      0.9999998851
    0.09213262071      0.9999998789
    0.09230001176      0.9999998724
    0.09246740281      0.9999998655
    0.09263115492      0.9999998584
    0.09279490703       0.999999851
    0.09295865914      0.9999998431
    0.09312241126      0.9999998349
    0.09328616337      0.9999998263
    0.09344601662      0.9999998175
    0.09360586988      0.9999998082
    0.09376572313      0.9999997984
    0.09392557638      0.9999997881
    0.09408542964      0.9999997774
    0.09424528289       0.999999766
    0.09440513614      0.9999997541
    0.09456054903       0.999999742
    0.09471596191      0.9999997292
     0.0948713748      0.9999997158
    0.09502678768      0.9999997018
    0.09518220057       0.999999687
    0.09533761345      0.9999996716
    0.09549302634      0.9999996554
    0.09564325879       0.999999639
    0.09579349125      0.9999996218
     0.0959437237      0.9999996038
    0.09609395616      0.9999995851
    0.09624418861      0.9999995654
    0.09639442107      0.9999995448
    0.09654465352      0.9999995233
    0.09669488598      0.9999995008
    0.09684511844      0.9999994772
    0.09699535089      0.9999994526
    0.09714558335      0.9999994268
     0.0972958158      0.9999993999
    0.09744604826      0.9999993717
    0.09758793447      0.9999993439
    0.09772982067      0.9999993149
    0.09787170688      0.9999992846
    0.09801359309      0.9999992531
     0.0981554793      0.9999992202
     0.0982973655      0.9999991858
    0.09843925171        0.99999915
    0.09858113792      0.9999991126
    0.09872302413      0.9999990735
    0.09886491034      0.9999990327
    0.09900679654      0.9999989901
    0.09914868275      0.9999989457
    0.09929056896      0.9999988992
    0.09943245517      0.9999988507
    0.09957434138         0.9999988
    0.09971622758      0.9999987472
    0.09985811379       0.999998692
              0.1      0.9999986345
     0.1001388889      0.9999985759
      0.100277392      0.9999985149
     0.1004155103      0.9999984517
      0.100553245      0.9999983861
     0.1006905971       0.999998318
     0.1008275677      0.9999982473
     0.1009641578       0.999998174
     0.1011003684      0.9999980978
     0.1012362008      0.9999980188
     0.1013716558      0.9999979369
     0.1015067345      0.9999978518
      0.101641438      0.9999977636
     0.1017761415      0.9999976718
     0.1019104698      0.9999975767
     0.1020444239      0.9999974782
     0.1021780049       0.999997376
     0.1023112138      0.9999972703
     0.1024440517      0.9999971608
     0.1025765195      0.9999970474
     0.1027086183        0.99999693
     0.1028403492      0.9999968084
     0.1029717131      0.9999966826
     0.1031027111      0.9999965524
     0.1032333443      0.9999964176
     0.1033632516      0.9999962785
     0.1034927982      0.9999961346
     0.1036219848      0.9999959858
     0.1037508127      0.9999958319
     0.1038792826      0.9999956729
     0.1040073957      0.9999955086
      0.104135153      0.9999953389
     0.1042625553      0.9999951637
     0.1043896038      0.9999949828
     0.1045162993      0.9999947961
     0.1046426429      0.9999946034
     0.1047686356      0.9999944045
     0.1048942783      0.9999941992
     0.1050195719      0.9999939873
     0.1051445176      0.9999937686
     0.1052691161       0.999993543
     0.1053933686      0.9999933101
     0.1055172759      0.9999930699
      0.105640839      0.9999928222
     0.1057640589      0.9999925668
     0.1058869365      0.9999923036
     0.1060094728      0.9999920323
     0.1061320091      0.9999917522
     0.1062542041      0.9999914636
     0.1063760586      0.9999911666
     0.1064975738      0.9999908608
     0.1066187505       0.999990546
     0.1067395896      0.9999902221
     0.1068600921      0.9999898886
      0.106980259      0.9999895455
     0.1071000912      0.9999891923
     0.1072199233      0.9999888278
     0.1073394207      0.9999884525
     0.1074589182      0.9999880651
     0.1075780808      0.9999876664
     0.1076969098       0.999987256
     0.1078154058      0.9999868338
     0.1079339019      0.9999863981
     0.1080520651        0.99998595
     0.1081698963      0.9999854893
     0.1082873966      0.9999850157
     0.1084045669       0.999984529
      0.108521408      0.9999840289
     0.1086379209       0.999983515
     0.1087541065      0.9999829871
     0.1088699657      0.9999824447
     0.1089854995      0.9999818874
     0.1091007088      0.9999813148
     0.1092159181      0.9999807248
     0.1093308028      0.9999801184
     0.1094453639      0.9999794954
     0.1095596023      0.9999788553
      0.109673519      0.9999781976
     0.1097871147      0.9999775221
     0.1099003904      0.9999768285
     0.1100136661      0.9999761144
     0.1101266219      0.9999753814
     0.1102392585      0.9999746293
     0.1103518952      0.9999738556
     0.1104642128      0.9999730622
     0.1105762122      0.9999722488
     0.1106882116      0.9999714126
     0.1107998928      0.9999705546
     0.1109112567      0.9999696752
     0.1110226207      0.9999687727
     0.1111336673      0.9999678474
     0.1112443976      0.9999668993
     0.1113551279      0.9999659252
     0.1114655419      0.9999649274
     0.1115756403      0.9999639054
     0.1116854242      0.9999628584
     0.1117952081      0.9999617827
     0.1119046774      0.9999606807
     0.1120141467      0.9999595484
     0.1121233015      0.9999583884
     0.1122324562      0.9999571966
     0.1123412964      0.9999559759
     0.1124498229      0.9999547257
     0.1125583494       0.999953444
     0.1126665623      0.9999521306
     0.1127747752      0.9999507841
     0.1128826744      0.9999494041
     0.1129902608      0.9999479939
     0.1130975354      0.9999465498
       0.11320481      0.9999450705
     0.1133117728      0.9999435584
     0.1134187356      0.9999420076
     0.1135253865      0.9999404216
     0.1136320374      0.9999387947
     0.1137383765      0.9999371307
     0.1138447155      0.9999354235
     0.1139510546      0.9999336708
     0.1140570809      0.9999318786
     0.1141631072        0.99993004
     0.1142688208      0.9999281584
     0.1143745343      0.9999262285
     0.1144799351      0.9999242393
     0.1145850241      0.9999222156
     0.1146898021      0.9999201494
     0.1147942701      0.9999180213
     0.1148987382      0.9999158474
     0.1150028962      0.9999136139
     0.1151067452      0.9999113414
      0.115210286      0.9999090034
     0.1153138268      0.9999066258
     0.1154170595       0.999904198
     0.1155199849      0.9999016975
      0.115622604      0.9998991576
     0.1157252231      0.9998965606
     0.1158275359      0.9998938875
     0.1159295432      0.9998911739
     0.1160315506      0.9998884007
     0.1161332525      0.9998855718
       0.11623465      0.9998826849
     0.1163360474      0.9998797038
     0.1164371404      0.9998766797
     0.1165379297      0.9998735971
     0.1166384164      0.9998704258
     0.1167389031      0.9998672008
     0.1168390871      0.9998639179
     0.1169389694      0.9998605747
     0.1170388517      0.9998571233
     0.1171384322       0.999853624
     0.1172380127      0.9998500521
     0.1173372914      0.9998464123
     0.1174365702      0.9998426912
     0.1175355472      0.9998388975
     0.1176345242      0.9998349834
     0.1177331994      0.9998310163
     0.1178318746      0.9998269675
     0.1179302481       0.999822809
     0.1180286216      0.9998185466
     0.1181266933      0.9998142367
     0.1182244642      0.9998098166
     0.1183222351      0.9998052862
     0.1184197051      0.9998007086
     0.1185171751      0.9997960027
     0.1186143444      0.9997912404
     0.1187115136      0.9997863419
     0.1188083819       0.999781342
     0.1189052503        0.99977623
     0.1190018179      0.9997710664
     0.1190983854       0.999765805
     0.1191946521      0.9997604008
     0.1192906189      0.9997548869
     0.1193865858      0.9997492505
     0.1194825526       0.999743535
     0.1195782186      0.9997377276
     0.1196738845      0.9997317987
     0.1197692497      0.9997257632
     0.1198646148      0.9997195974
     0.1199596791        0.99971332
     0.1200547434      0.9997069131
     0.1201495069      0.9997003858
     0.1202442704      0.9996937168
      0.120338733      0.9996869259
     0.1204331956      0.9996799944
     0.1205273574      0.9996729388
     0.1206215192      0.9996657275
     0.1207153802      0.9996583228
     0.1208092412      0.9996508072
     0.1209028013      0.9996431076
     0.1209963614      0.9996352272
     0.1210896207       0.999627198
       0.12118288      0.9996189948
     0.1212758384      0.9996106418
     0.1213687969      0.9996021088
     0.1214614545      0.9995934203
     0.1215541121      0.9995845451
     0.1216464689       0.999575509
     0.1217388257      0.9995662799
     0.1218308816      0.9995568857
     0.1219226377      0.9995473178
     0.1220143938      0.9995375477
       0.12210585      0.9995276075
     0.1221973063      0.9995174634
     0.1222887625      0.9995071128
     0.1223799179      0.9994966648
     0.1224710733      0.9994859558
     0.1225619278      0.9994750533
     0.1226527823      0.9994639301
     0.1227436369      0.9994525875
     0.1228341896       0.999441062
     0.1229247423      0.9994293129
      0.123015295       0.999417336
     0.1231055448      0.9994051687
     0.1231957947      0.9993927664
     0.1232860445      0.9993801242
     0.1233762944      0.9993672367
     0.1234662393      0.9993541427
     0.1235561843      0.9993407821
     0.1236461292      0.9993271702
     0.1237357683      0.9993133463
     0.1238254073      0.9992992567
     0.1239150463      0.9992848813
     0.1240046853      0.9992702283
     0.1240943243      0.9992552698
     0.1241836542      0.9992400705
     0.1242729842      0.9992245658
     0.1243623141      0.9992087329
      0.124451644      0.9991925739
     0.1245409739      0.9991761009
     0.1246299915      0.9991593611
     0.1247190091       0.999142274
     0.1248080266      0.9991248443
     0.1248970442      0.9991070879
     0.1249857472      0.9990890566
     0.1250744502      0.9990706812
     0.1251631533      0.9990519574
     0.1252515406      0.9990329495
      0.125339928      0.9990135685
     0.1254283153      0.9989938411
     0.1255163859      0.9989738069
     0.1256044564      0.9989534205
     0.1256922102      0.9989327201
      0.125779964      0.9989116354
     0.1258674009       0.998890262
     0.1259548379       0.998868479
     0.1260422748      0.9988462868
     0.1261293938      0.9988237876
     0.1262165128      0.9988008515
     0.1263036318      0.9987774784
     0.1263907508       0.998753662
     0.1264775495      0.9987294817
     0.1265643482      0.9987048418
     0.1266511469      0.9986797344
     0.1267376242      0.9986542497
     0.1268241014      0.9986282901
     0.1269105786      0.9986018516
     0.1269967332      0.9985750325
     0.1270828878      0.9985477328
     0.1271687196      0.9985200552
     0.1272545515      0.9984918961
     0.1273400607      0.9984633606
     0.1274255699      0.9984343404
     0.1275110791      0.9984048316
     0.1275962644      0.9983749424
     0.1276814497      0.9983445539
     0.1277663112      0.9983137736
     0.1278511726      0.9982824757
      0.127936034      0.9982506467
     0.1280205702      0.9982184424
     0.1281051065      0.9981856995
     0.1281896428      0.9981523949
     0.1282738527      0.9981186428
     0.1283580625      0.9980843024
      0.128441946      0.9980494976
     0.1285258295      0.9980140351
      0.128609713      0.9979779383
     0.1286932688      0.9979414061
     0.1287768246      0.9979042622
     0.1288603804        0.99786649
     0.1289439362      0.9978280804
     0.1290271617      0.9977891821
     0.1291103873      0.9977496387
     0.1291936128      0.9977093841
     0.1292765068      0.9976686765
     0.1293594008      0.9976273234
     0.1294422948      0.9975853082
     0.1295251887      0.9975425546
     0.1296077485      0.9974992706
     0.1296903082      0.9974552883
     0.1297728679      0.9974106028
     0.1298554276      0.9973652039
     0.1299376504      0.9973192707
     0.1300198731      0.9972726083
     0.1301020959       0.997225205
     0.1301843186      0.9971770488
     0.1302662016      0.9971283313
     0.1303480846      0.9970788427
     0.1304299675      0.9970285705
     0.1305118505      0.9969775017
     0.1305937335      0.9969256228
     0.1306752724      0.9968731432
     0.1307568114      0.9968198324
     0.1308383503       0.996765676
     0.1309198892      0.9967106593
     0.1310010812      0.9966550075
     0.1310822732       0.996598474
     0.1311634651      0.9965410452
     0.1312446571      0.9964828187
     0.1313254991      0.9964239654
     0.1314063411      0.9963642001
     0.1314871831      0.9963035035
     0.1315680251      0.9962417401
      0.131648514      0.9961792514
      0.131729003      0.9961157818
      0.131809492      0.9960513288
      0.131889981      0.9959858841
     0.1319701138       0.995919733
     0.1320502466      0.9958525777
     0.1321303794      0.9957844029
     0.1322105123      0.9957151977
     0.1322902858      0.9956452685
     0.1323700592      0.9955742961
     0.1324498327      0.9955022684
     0.1325296062      0.9954291732
     0.1326093797      0.9953549985
     0.1326887889      0.9952800828
     0.1327681982       0.995204078
     0.1328476074      0.9951269743
     0.1329270166       0.995048763
     0.1330064258       0.994969436
     0.1330854657      0.9948893622
     0.1331645056      0.9948081673
     0.1332435455      0.9947258428
     0.1333225854      0.9946423795
     0.1334016252      0.9945577667
     0.1334802905      0.9944724013
     0.1335589558      0.9943858715
     0.1336376211      0.9942981618
     0.1337162864      0.9942092547
     0.1337945735      0.9941195673
     0.1338728605      0.9940286547
     0.1339511476      0.9939364951
     0.1340294347      0.9938430639
     0.1341077218      0.9937483332
     0.1341856251      0.9936527542
     0.1342635284      0.9935558449
     0.1343414318      0.9934575849
     0.1344193351      0.9933579538
     0.1344972384      0.9932569309
     0.1345751417      0.9931544946
     0.1346530451      0.9930506224
     0.1347305549      0.9929458265
     0.1348080648      0.9928395633
     0.1348855747      0.9927318082
     0.1349630846      0.9926225348
     0.1350405944       0.992511716
     0.1351181043      0.9923993235
     0.1351956142      0.9922853279
     0.1352731241      0.9921696987
     0.1353502281      0.9920530233
     0.1354273322      0.9919347698
     0.1355044362      0.9918149553
     0.1355815403      0.9916935754
     0.1356586444      0.9915706176
     0.1357357484      0.9914460661
     0.1358128525      0.9913199026
     0.1358899566      0.9911921078
     0.1359666416      0.9910633689
     0.1360433266      0.9909329749
     0.1361200116      0.9908009044
     0.1361966966      0.9906671358
     0.1362733816      0.9905316471
     0.1363500667      0.9903944169