# Probe 0 (4.8 0.005 1.5)
#           Probe                 0
#            Time
    1.1999904e-06                 1
  2.639965056e-06                 1
  4.367944597e-06                 1
  6.441505713e-06                 1
   8.92973777e-06                 1
  1.191552707e-05                 1
  1.549838863e-05                 1
  1.979776087e-05                 1
  2.495674128e-05                 1
  3.114713435e-05                 1
  3.857523794e-05                 1
  4.748896225e-05                 1
  5.818543142e-05                 1
  7.102064463e-05                 1
  8.642131685e-05                 1
  0.0001049009832                 1
  0.0001270765827                 1
  0.0001536896689                 1
  0.0001856219625                 1
  0.0002239407148                 1
  0.0002699019884                 1
  0.0003250351347                 1
  0.0003911802278                 1
  0.0004705543394                 1
  0.0005658032734                 1
  0.0006799700095                 1
  0.0008169700928                 1
  0.0009814618316                 1
   0.001179117227                 1
   0.001416111804                 1
   0.001666544217                 1
   0.001916976631                 1
   0.002167409044                 1
   0.002417841458                 1
   0.002668273871                 1
   0.002918706284                 1
   0.003169138698                 1
   0.003419571111                 1
   0.003670003524                 1
   0.003920435938                 1
   0.004170868351                 1
   0.004421300765                 1
   0.004671733178                 1
   0.004922165591                 1
   0.005172598005                 1
   0.005423030418                 1
   0.005673462831                 1
   0.005923895245                 1
   0.006174327658                 1
   0.006424760072                 1
   0.006675192485                 1
   0.006925624898                 1
   0.007176057312                 1
   0.007426489725                 1
   0.007676922139                 1
   0.007927354552                 1
   0.008177786965                 1
   0.008428219379                 1
   0.008678651792                 1
   0.008929084205                 1
   0.009179516619                 1
   0.009429949032                 1
   0.009680381446                 1
   0.009930813859                 1
    0.01018124627                 1
    0.01043167869                 1
     0.0106821111                 1
    0.01093254351                 1
    0.01118297593                 1
    0.01143340834                 1
    0.01168384075                 1
    0.01193427317                 1
    0.01218470558                 1
    0.01243513799                 1
    0.01268557041                 1
    0.01293600282                 1
    0.01318643523                 1
    0.01343686765                 1
    0.01368730006                 1
    0.01393773247                 1
    0.01418816489                 1
     0.0144385973                 1
    0.01468902971                 1
    0.01493946213                 1
    0.01518989454                 1
    0.01544032695                 1
    0.01569075937                 1
    0.01594119178                 1
    0.01619162419                 1
    0.01644205661                 1
    0.01669248902                 1
    0.01694292143                 1
    0.01719335385                 1
    0.01744378626                 1
    0.01769421867                 1
    0.01794465109                 1
     0.0181950835                 1
    0.01844551591                 1
    0.01869594833                 1
    0.01894638074                 1
    0.01919681315                 1
    0.01944724557                 1
    0.01969767798                 1
    0.01994811039                 1
    0.02019854281                 1
    0.02044897522                 1
    0.02069940763                 1
    0.02094984005                 1
    0.02120027246                 1
    0.02145070487                 1
    0.02170113729                 1
     0.0219515697                 1
    0.02220200211                 1
    0.02245243453                 1
    0.02270286694                 1
    0.02295329935                 1
    0.02320373177                 1
    0.02345416418                 1
    0.02370459659                 1
    0.02395502901                 1
    0.02420546142                 1
    0.02445589384                 1
    0.02470632625                 1
    0.02495675866                 1
    0.02520719108                 1
    0.02545762349                 1
     0.0257080559                 1
    0.02595848832                 1
    0.02620892073                 1
    0.02645935314                 1
    0.02670978556                 1
    0.02696021797                 1
    0.02721065038                 1
     0.0274610828                 1
    0.02771151521                 1
    0.02796194762                 1
    0.02821238004                 1
    0.02846281245                 1
    0.02871324486                 1
    0.02896367728                 1
    0.02921410969                 1
     0.0294645421                 1
    0.02971497452                 1
    0.02996540693                 1
    0.03021583934                 1
    0.03046627176                 1
    0.03071670417                 1
    0.03096713658                 1
      0.031217569                 1
    0.03146800141                 1
    0.03171843382                 1
    0.03196886624                 1
    0.03221929865                 1
    0.03246973106                 1
    0.03272016348                 1
    0.03297059589                 1
     0.0332210283                 1
    0.03347146072                 1
    0.03372189313                 1
    0.03397232554                 1
    0.03422275796                 1
    0.03447319037                 1
    0.03472362278                 1
     0.0349740552                 1
    0.03522448761                 1
    0.03547492002                 1
    0.03572535244                 1
    0.03597578485                 1
    0.03622621726                 1
    0.03647664968                 1
    0.03672708209                 1
     0.0369775145                 1
    0.03722794692                 1
    0.03747837933                 1
    0.03772881174                 1
    0.03797924416                 1
    0.03822967657                 1
    0.03848010898                 1
     0.0387305414                 1
    0.03898097381                 1
    0.03923140622                 1
    0.03948183864                 1
    0.03973227105                 1
    0.03998270346                 1
    0.04023313588                 1
    0.04048356829                 1
     0.0407340007                 1
    0.04098443312                 1
    0.04123486553                 1
    0.04148529795                 1
    0.04173573036                 1
    0.04198616277                 1
    0.04223659519                 1
     0.0424870276                 1
    0.04273746001                 1
    0.04298789243                 1
    0.04323832484                 1
    0.04348875725                 1
    0.04373918967                 1
    0.04398962208                 1
    0.04424005449                 1
    0.04449048691                 1
    0.04474091932                 1
    0.04499135173                 1
    0.04524178415                 1
    0.04549221656                 1
    0.04574264897                 1
    0.04599308139                 1
     0.0462435138                 1
    0.04649394621                 1
    0.04674437863                 1
    0.04699481104                 1
    0.04724524345                 1
    0.04749567587                 1
    0.04774610828                 1
    0.04799654069                 1
    0.04824697311                 1
    0.04849740552                 1
    0.04874783793                 1
    0.04899827035                 1
    0.04924870276                 1
    0.04949913517                 1
    0.04974956759                 1
             0.05                 1
          0.05025                 1
           0.0505                 1
          0.05075                 1
            0.051                 1
          0.05125                 1
           0.0515                 1
          0.05175                 1
            0.052                 1
          0.05225                 1
           0.0525                 1
          0.05275                 1
            0.053                 1
          0.05325                 1
           0.0535                 1
          0.05375                 1
            0.054                 1
          0.05425                 1
           0.0545                 1
          0.05475                 1
            0.055                 1
          0.05525                 1
           0.0555                 1
          0.05575                 1
            0.056                 1
          0.05625                 1
           0.0565                 1
          0.05675                 1
            0.057                 1
          0.05725                 1
           0.0575                 1
          0.05775                 1
            0.058                 1
          0.05825                 1
           0.0585                 1
          0.05875                 1
            0.059                 1
          0.05925                 1
           0.0595                 1
          0.05975                 1
             0.06                 1
          0.06025                 1
           0.0605                 1
          0.06075                 1
            0.061                 1
          0.06125                 1
           0.0615                 1
          0.06175                 1
            0.062                 1
          0.06225                 1
           0.0625                 1
          0.06275                 1
            0.063                 1
          0.06325                 1
           0.0635                 1
          0.06375                 1
            0.064                 1
          0.06425                 1
           0.0645                 1
          0.06475                 1
            0.065                 1
          0.06525                 1
           0.0655                 1
          0.06575                 1
            0.066                 1
          0.06625                 1
           0.0665                 1
          0.06675                 1
            0.067                 1
          0.06725                 1
           0.0675                 1
          0.06775                 1
            0.068                 1
          0.06825                 1
           0.0685                 1
          0.06875                 1
            0.069                 1
          0.06925                 1
           0.0695                 1
          0.06975                 1
             0.07                 1
          0.07025                 1
           0.0705                 1
          0.07075                 1
            0.071                 1
          0.07125                 1
           0.0715                 1
          0.07175                 1
            0.072                 1
          0.07225                 1
           0.0725                 1
          0.07275                 1
            0.073                 1
          0.07325                 1
           0.0735                 1
          0.07375                 1
            0.074                 1
          0.07425                 1
           0.0745                 1
          0.07475      0.9999999999
            0.075      0.9999999999
          0.07525      0.9999999999
           0.0755      0.9999999999
          0.07575      0.9999999999
            0.076      0.9999999999
          0.07625      0.9999999999
           0.0765      0.9999999999
          0.07675      0.9999999999
            0.077      0.9999999999
          0.07725      0.9999999999
           0.0775      0.9999999999
          0.07775      0.9999999999
            0.078      0.9999999999
          0.07825      0.9999999998
           0.0785      0.9999999998
          0.07875      0.9999999998
            0.079      0.9999999998
          0.07925      0.9999999998
           0.0795      0.9999999998
          0.07975      0.9999999997
             0.08      0.9999999997
          0.08025      0.9999999997
           0.0805      0.9999999997
          0.08075      0.9999999997
            0.081      0.9999999996
          0.08125      0.9999999996
           0.0815      0.9999999996
          0.08175      0.9999999995
            0.082      0.9999999995
          0.08225      0.9999999994
           0.0825      0.9999999994
          0.08275      0.9999999993
            0.083      0.9999999993
          0.08325      0.9999999992
           0.0835      0.9999999992
    0.08374626866      0.9999999991
    0.08399253731       0.999999999
    0.08423880597       0.999999999
    0.08448507463      0.9999999989
    0.08472749534      0.9999999988
    0.08496991604      0.9999999987
    0.08521233675      0.9999999986
    0.08545475746      0.9999999985
    0.08569320406      0.9999999983
    0.08593165066      0.9999999982
    0.08617009726      0.9999999981
    0.08640854386      0.9999999979
    0.08664287931      0.9999999978
    0.08687721476      0.9999999976
    0.08711155021      0.9999999974
    0.08734588566      0.9999999972
    0.08758022111       0.999999997
    0.08781021702      0.9999999968
    0.08804021292      0.9999999965
    0.08827020883      0.9999999963
    0.08849578174       0.999999996
    0.08872135464      0.9999999957
    0.08894692755      0.9999999953
      0.089167989       0.999999995
    0.08938905045      0.9999999946
     0.0896101119      0.9999999943
    0.08983117335      0.9999999938
    0.09004753136      0.9999999934
    0.09026388937      0.9999999929
    0.09048024739      0.9999999924
     0.0906966054      0.9999999919
    0.09091296342      0.9999999913
    0.09112428985      0.9999999907
    0.09133561628      0.9999999901
    0.09154694271      0.9999999894
    0.09175826914      0.9999999887
    0.09196959558       0.999999988
    0.09218092201      0.9999999871
    0.09238668722      0.9999999863
    0.09259245243      0.9999999854
    0.09279821764      0.9999999845
    0.09300398285      0.9999999835
    0.09320974806      0.9999999824
    0.09341551327      0.9999999812
    0.09361504317      0.9999999801
    0.09381457307      0.9999999788
    0.09401410297      0.9999999775
    0.09421363287      0.9999999761
    0.09441316277      0.9999999746
    0.09461269268      0.9999999731
    0.09481222258      0.9999999714
    0.09500436248      0.9999999698
    0.09519650239       0.999999968
    0.09538864229      0.9999999662
    0.09558078219      0.9999999642
     0.0957729221      0.9999999622
      0.095965062        0.99999996
    0.09615720191      0.9999999577
    0.09634934181      0.9999999553
    0.09654148172      0.9999999528
      0.096723509      0.9999999503
    0.09690553627      0.9999999476
    0.09708756355      0.9999999448
    0.09726959083      0.9999999419
    0.09745161811      0.9999999388
    0.09763364539      0.9999999356
    0.09781567266      0.9999999322
    0.09799769994      0.9999999286
    0.09817972722      0.9999999249
     0.0983617545      0.9999999209
    0.09854378178      0.9999999168
    0.09872580905      0.9999999124
    0.09890783633      0.9999999078
    0.09908986361       0.999999903
    0.09927189089      0.9999998979
    0.09945391817      0.9999998926
    0.09963594544      0.9999998869
    0.09981797272       0.999999881
              0.1      0.9999998747
     0.1001748252      0.9999998684
     0.1003490391      0.9999998618
     0.1005226438      0.9999998549
     0.1006956416      0.9999998476
     0.1008680344      0.9999998401
     0.1010398245      0.9999998322
      0.101211014      0.9999998239
     0.1013816048      0.9999998153
     0.1015515992      0.9999998062
     0.1017209992      0.9999997968
     0.1018898069      0.9999997869
     0.1020580244      0.9999997766
     0.1022256536      0.9999997658
     0.1023926968      0.9999997545
     0.1025591559      0.9999997427
      0.102725033      0.9999997303
     0.1028903301      0.9999997174
     0.1030550492      0.9999997039
     0.1032191924      0.9999996898
     0.1033827616      0.9999996751
      0.103545759      0.9999996597
     0.1037081864      0.9999996437
     0.1038700459       0.999999627
     0.1040313394      0.9999996096
      0.104192069      0.9999995914
     0.1043522366      0.9999995725
     0.1045112881      0.9999995528
     0.1046697853      0.9999995323
     0.1048277303      0.9999995109
      0.104985125      0.9999994886
     0.1051419712      0.9999994654
     0.1052977283      0.9999994412
     0.1054529445       0.999999416
     0.1056076218      0.9999993897
      0.105761762      0.9999993624
      0.105915367       0.999999334
     0.1060684386      0.9999993044
     0.1062209787      0.9999992737
     0.1063729892      0.9999992418
     0.1065244719      0.9999992086
     0.1066759546       0.999999174
     0.1068269095      0.9999991381
     0.1069773383      0.9999991007
     0.1071272431      0.9999990619
     0.1072766255      0.9999990215
     0.1074260079      0.9999989794
     0.1075748681      0.9999989355
     0.1077232077      0.9999988898
     0.1078710286      0.9999988423
     0.1080188496      0.9999987927
     0.1081661519      0.9999987412
     0.1083129373      0.9999986875
     0.1084592077      0.9999986318
     0.1086049649      0.9999985739
     0.1087502106      0.9999985138
     0.1088954563      0.9999984511
     0.1090401906      0.9999983861
     0.1091844153      0.9999983186
     0.1093281322      0.9999982486
      0.109471343       0.999998176
     0.1096140495      0.9999981007
     0.1097562536      0.9999980227
     0.1098979569      0.9999979417
     0.1100396602      0.9999978575
     0.1101808628      0.9999977701
     0.1103215665      0.9999976795
     0.1104622702      0.9999975852
     0.1106024749      0.9999974874
     0.1107421824       0.999997386
     0.1108813945      0.9999972808
     0.1110206067      0.9999971713
     0.1111593234      0.9999970577
     0.1112975464        0.99999694
     0.1114357695      0.9999968175
     0.1115734989      0.9999966906
     0.1117107364      0.9999965592
     0.1118479739      0.9999964226
     0.1119847195      0.9999962813
      0.112120975      0.9999961351
     0.1122572304      0.9999959834
     0.1123929958      0.9999958266
     0.1125287612      0.9999956641
     0.1126640364      0.9999954963
     0.1127988233       0.999995323
     0.1129336101      0.9999951435
     0.1130679087      0.9999949582
     0.1132022072      0.9999947662
     0.1133360173       0.999994568
     0.1134693409      0.9999943634
     0.1136026645      0.9999941514
     0.1137355015      0.9999939325
     0.1138683384      0.9999937058
     0.1140006889      0.9999934717
     0.1141330393      0.9999932291
     0.1142649031      0.9999929786
     0.1143967669      0.9999927189
     0.1145281442      0.9999924507
     0.1146595214      0.9999921727
     0.1147904121      0.9999918854
     0.1149208179      0.9999915886
     0.1150512238      0.9999912807
     0.1151811449      0.9999909626
     0.1153105831       0.999990634
       0.11543954      0.9999902945
     0.1155680175      0.9999899441
     0.1156964951      0.9999895811
     0.1158244932      0.9999892068
     0.1159520138       0.999988821
     0.1160790585      0.9999884236
     0.1162056292      0.9999880145
     0.1163317276      0.9999875937
     0.1164573555       0.999987161
     0.1165825146      0.9999867164
     0.1167076737      0.9999862578
     0.1168323641      0.9999857869
     0.1169565874      0.9999853032
     0.1170808108      0.9999848048
     0.1172045671      0.9999842924
     0.1173283235      0.9999837641
     0.1174516128      0.9999832223
     0.1175749022      0.9999826633
     0.1176981915      0.9999820869
     0.1178210121      0.9999814949
     0.1179438327       0.999980885
     0.1180661844      0.9999802578
     0.1181885362      0.9999796105
     0.1183104192      0.9999789458
     0.1184323022        0.99997826
     0.1185537164      0.9999775548
     0.1186751307      0.9999768269
     0.1187960761      0.9999760785
     0.1189165546      0.9999753092
     0.1190370331      0.9999745158
     0.1191570446      0.9999737008
     0.1192770561       0.999972861
     0.1193966006      0.9999719994
     0.1195161451      0.9999711124
     0.1196352227      0.9999702032
     0.1197543002       0.999969268
     0.1198729108      0.9999683103
     0.1199910563      0.9999673295
     0.1201092017      0.9999663214
      0.120226882      0.9999652892
      0.120344099      0.9999642322
      0.120461316      0.9999631452
     0.1205780697      0.9999620316
     0.1206943619      0.9999608903
     0.1208106541       0.999959714
     0.1209264849      0.9999585093
     0.1210423156      0.9999572695
     0.1211581464      0.9999559914
     0.1212735138      0.9999546815
     0.1213888812      0.9999533346
     0.1215037853      0.9999519526
     0.1216186894      0.9999505316
     0.1217335935      0.9999490693
     0.1218480323       0.999947574
     0.1219624712      0.9999460352
     0.1220764449       0.999944461
     0.1221899553      0.9999428478
     0.1223034657      0.9999411935
     0.1224165128      0.9999395009
     0.1225295599      0.9999377608
     0.1226421436      0.9999359822
     0.1227547274      0.9999341563
     0.1228668479      0.9999322912
     0.1229789683      0.9999303775
     0.1230910888      0.9999284126
      0.123202744      0.9999263907
     0.1233143993      0.9999243286
     0.1234255893      0.9999222271
     0.1235367793      0.9999200586
     0.1236479693      0.9999178456
     0.1237586921      0.9999155921
     0.1238694149      0.9999132665
     0.1239801377      0.9999108957
     0.1240903914      0.9999084572
      0.124200645      0.9999059744
     0.1243108987      0.9999034343
     0.1244206812      0.9999008221
     0.1245304637      0.9998981531
     0.1246402461      0.9998953975
     0.1247500286      0.9998925876
     0.1248598111      0.9998897161
     0.1249691163      0.9998867826
     0.1250784214      0.9998837557
     0.1251877266      0.9998806652
     0.1252970318      0.9998774764
     0.1254058554      0.9998742415
     0.1255146791      0.9998709387
     0.1256235027      0.9998675526
     0.1257318427      0.9998641042
     0.1258401827      0.9998605671
     0.1259485227      0.9998569423
     0.1260563769      0.9998532455
      0.126164231      0.9998494589
     0.1262720852      0.9998455807
     0.1263794513      0.9998416336
     0.1264868174       0.999837587
     0.1265941836      0.9998334418
     0.1267010594      0.9998292169
     0.1268079353      0.9998248918
     0.1269148112       0.999820465
     0.1270211945      0.9998159187
     0.1271275779      0.9998112892
     0.1272334687      0.9998065464
     0.1273393596      0.9998016864
     0.1274447579        0.99979674
     0.1275501562      0.9997916788
     0.1276550621      0.9997865309
     0.1277599679      0.9997812637
     0.1278643812       0.999775906
     0.1279687945      0.9997704316
     0.1280732078      0.9997648312
     0.1281771262      0.9997591368
     0.1282810446      0.9997533118
     0.1283849631      0.9997473594
     0.1284883843      0.9997413021
     0.1285918056      0.9997351198
     0.1286952268      0.9997287998
     0.1287981484       0.999722379
       0.12890107      0.9997158221
     0.1290039916        0.99970912
     0.1291064112      0.9997023077
     0.1292088307      0.9996953573
     0.1293112503      0.9996882626
     0.1294136698       0.999681013
     0.1295155824      0.9996736522
     0.1296174949      0.9996661385
     0.1297194074      0.9996584606
     0.1298208104      0.9996506657
     0.1299222133      0.9996427022
     0.1300236163      0.9996345706
     0.1301245071      0.9996263113
     0.1302253979      0.9996178887
     0.1303262888      0.9996092955
     0.1304271796      0.9996005203
      0.130527553      0.9995916113
     0.1306279265      0.9995825856
     0.1307282999      0.9995734003
     0.1308281533      0.9995640323
     0.1309280066      0.9995544639
       0.13102786      0.9995446943
     0.1311277134      0.9995347962
     0.1312270412      0.9995247099
      0.131326369       0.999514488
     0.1314256969      0.9995040051
     0.1315250247      0.9994933652
     0.1316243525      0.9994824555
     0.1317231463      0.9994713666
     0.1318219401       0.999460046
     0.1319207339      0.9994484916
     0.1320195277      0.9994366985
     0.1321177817      0.9994247281
     0.1322160356      0.9994125115
     0.1323142896      0.9994000441
     0.1324120007      0.9993873929
     0.1325097118      0.9993744859
     0.1326074229        0.99936132
      0.132705134      0.9993478923
     0.1328022962      0.9993343609
     0.1328994583      0.9993205081
     0.1329966205      0.9993063694
     0.1330937827      0.9992920404
     0.1331909448      0.9992774639
      0.133288107      0.9992625276
     0.1333847075      0.9992473693
     0.1334813081      0.9992320083
     0.1335779086      0.9992163842
     0.1336745092      0.9992003764
     0.1337705415      0.9991841324
     0.1338665738      0.9991675729
     0.1339626061      0.9991506968
     0.1340580667      0.9991336063
     0.1341535274       0.999116199
     0.1342489881      0.9990984706
     0.1343444488      0.9990804113
     0.1344393309      0.9990621203
      0.134534213        0.99904348
     0.1346290951      0.9990244832
     0.1347239773      0.9990051234
     0.1348182737      0.9989855183
     0.1349125702      0.9989655453
     0.1350068666       0.998945201
      0.135101163      0.9989244831
     0.1351954595      0.9989033902
     0.1352897559      0.9988819209
     0.1353840523      0.9988600744
     0.1354777443      0.9988379928
     0.1355714363      0.9988155354
     0.1356651283      0.9987926989
     0.1357588202      0.9987694787
     0.1358525122      0.9987458685
     0.1359462042        0.99872186
     0.1360398961      0.9986974432
     0.1361335881      0.9986726063
     0.1362266513      0.9986475069
     0.1363197144       0.998621966
     0.1364127776      0.9985959691
     0.1365058408      0.9985695018
     0.1365989039      0.9985425512
     0.1366919671      0.9985151023
     0.1367850303      0.9984871448
     0.1368780934      0.9984586673
     0.1369711566      0.9984296608
     0.1370635598      0.9984003292
     0.1371559629      0.9983704274
      0.137248366      0.9983400107
     0.1373407692       0.998309061
     0.1374331723      0.9982775691
      0.137524901      0.9982457648
     0.1376166297       0.998213416
     0.1377083583      0.9981805181
      0.137800087      0.9981470661
     0.1378918157      0.9981130544
     0.1379835444      0.9980784766
      0.138075273      0.9980433255
     0.1381663015      0.9980078683
     0.1382573299      0.9979718307
     0.1383483584      0.9979352037
     0.1384393868      0.9978979778
     0.1385304153      0.9978601432
     0.1386214437      0.9978216894
     0.1387124722      0.9977826052
     0.1388035006      0.9977428795
     0.1388945291      0.9977025007
     0.1389855575      0.9976614572
      0.139076586      0.9976197372
     0.1391676144      0.9975773295
     0.1392578843       0.997534586
     0.1393481542      0.9974911463
     0.1394384241      0.9974470009
     0.1395286939      0.9974021406
     0.1396189638      0.9973565559
     0.1397084555      0.9973106393
     0.1397979472      0.9972639908
     0.1398874389      0.9972165991
     0.1399769306      0.9971684517
     0.1400664223       0.997119535
      0.140155914      0.9970698339
     0.1402454057      0.9970193325
     0.1403340838      0.9969684034
     0.1404227619      0.9969167102
     0.1405114401      0.9968642004
     0.1406001182      0.9968107598
     0.1406887963       0.996756518
     0.1407774744      0.9967013291
     0.1408661526      0.9966453221
      0.140953978      0.9965888993
     0.1410418035      0.9965315669
     0.1411296289       0.996473438
     0.1412174544      0.9964143476
     0.1413052799      0.9963544478
     0.1413931053      0.9962935755
     0.1414809308      0.9962317822
       0.14156786      0.9961697264
     0.1416547893      0.9961069018
     0.1417417186      0.9960431098
     0.1418286479      0.9959785185
     0.1419155772      0.9959129313
     0.1420025064       0.995846526
     0.1420894357      0.9957792259
      0.142176365      0.9957108599
     0.1422632943      0.9956416279
     0.1423502235      0.9955713077
     0.1424371528      0.9954999471
     0.1425240821      0.9954275472
     0.1426110114      0.9953542444
     0.1426979407       0.995279762
     0.1427848699      0.9952041428
     0.1428717992      0.9951273841
     0.1429576811      0.9950504138
     0.1430435631      0.9949722934
      0.143129445      0.9948930027
      0.143215327       0.994812523
     0.1433012089      0.9947308388
     0.1433870908      0.9946479373
     0.1434729728      0.9945640016
     0.1435588547      0.9944787032
     0.1436447366      0.9943921224
     0.1437306186       0.994304284
     0.1438165005      0.9942151948
     0.1439023825      0.9941248523
     0.1439882644      0.9940332236
     0.1440741463      0.9939402756
     0.1441588014       0.993847343
     0.1442434564      0.9937530915
     0.1443281115      0.9936575066
     0.1444127665      0.9935605692
     0.1444974216      0.9934622658
     0.1445820766      0.9933625985
     0.1446667317      0.9932615772
     0.1447513868      0.9931591948
     0.1448360418      0.9930554401