# Probe 0 (0.4 0.005 1.4)
# Probe 1 (0.9 0.005 1.4)
# Probe 2 (1.4 0.005 1.4)
# Probe 3 (1.9 0.005 1.4)
# Probe 4 (2.4 0.005 1.4)
# Probe 5 (2.9 0.005 1.4)
# Probe 6 (3.4 0.005 1.4)
# Probe 7 (3.9 0.005 1.4)
# Probe 8 (4.4 0.005 1.4)
# Probe 9 (4.9 0.005 1.4)
# Probe 10 (5.4 0.005 1.4)
# Probe 11 (5.9 0.005 1.4)
# Probe 12 (6.4 0.005 1.4)
# Probe 13 (6.9 0.005 1.4)
# Probe 14 (7.4 0.005 1.4)
# Probe 15 (7.9 0.005 1.4)
# Probe 16 (8.4 0.005 1.4)
#           Probe                 0                 1                 2                 3                 4                 5                 6                 7                 8                 9                10                11                12                13                14                15                16
#            Time
    1.1999904e-06            293.15            293.15            293.15       293.1500001       293.1647296            293.15            293.15            293.15            293.15            293.15            293.15            293.15            293.15            293.15            293.15            293.15            293.15
  2.639965056e-06            293.15            293.15            293.15       293.1500002       293.1824067            293.15            293.15            293.15       293.1499999            293.15            293.15            293.15            293.15            293.15            293.15            293.15            293.15
  4.367944597e-06            293.15            293.15            293.15       293.1500005       293.2036228            293.15            293.15            293.15       293.1499999            293.15            293.15            293.15            293.15            293.15            293.15            293.15            293.15
  6.441505713e-06            293.15            293.15            293.15       293.1500011       293.2290873       293.1500001            293.15            293.15       293.1499998       293.1499999            293.15            293.15            293.15            293.15            293.15            293.15            293.15
   8.92973777e-06            293.15            293.15            293.15       293.1500022       293.2596523       293.1500003            293.15            293.15       293.1499998       293.1499999            293.15            293.15            293.15            293.15            293.15            293.15            293.15
  1.191552707e-05            293.15            293.15            293.15       293.1500041       293.2963402       293.1500006            293.15            293.15       293.1499997       293.1499999            293.15            293.15            293.15            293.15            293.15            293.15            293.15
  1.549838863e-05            293.15            293.15            293.15       293.1500073       293.3403805       293.1500013            293.15            293.15       293.1499996       293.1499998            293.15            293.15            293.15            293.15            293.15            293.15            293.15
  1.979776087e-05            293.15            293.15            293.15       293.1500128       293.3932487       293.1500026            293.15            293.15       293.1499995       293.1499998            293.15            293.15            293.15            293.15            293.15            293.15            293.15
  2.495674128e-05            293.15            293.15            293.15        293.150022       293.4567162       293.1500052            293.15            293.15       293.1499994       293.1499997            293.15            293.15            293.15            293.15            293.15            293.15            293.15
  3.114713435e-05            293.15            293.15            293.15       293.1500374       293.5329114       293.1500101            293.15            293.15       293.1499992       293.1499997            293.15            293.15            293.15            293.15            293.15            293.15            293.15
  3.857523794e-05            293.15            293.15            293.15       293.1500631       293.6243908       293.1500191            293.15            293.15        293.149999       293.1499996            293.15            293.15            293.15            293.15            293.15            293.15            293.15
  4.748896225e-05            293.15            293.15            293.15       293.1501062       293.7342265       293.1500356            293.15            293.15       293.1499988       293.1499995            293.15            293.15            293.15            293.15            293.15            293.15            293.15
  5.818543142e-05            293.15            293.15            293.15       293.1501786        293.866097       293.1500654            293.15            293.15       293.1499986       293.1499994            293.15            293.15            293.15            293.15            293.15            293.15            293.15
  7.102064463e-05            293.15            293.15            293.15       293.1503004       294.0243987       293.1501188            293.15            293.15       293.1499982       293.1499992            293.15            293.15            293.15            293.15            293.15            293.15            293.15
  8.642131685e-05            293.15            293.15       293.1500001        293.150506       294.2143756       293.1502139            293.15            293.15       293.1499979        293.149999            293.15            293.15            293.15            293.15            293.15            293.15            293.15
  0.0001049009832            293.15            293.15       293.1500002       293.1508538       294.4422849        293.150382       293.1500001            293.15       293.1499974       293.1499988            293.15            293.15            293.15            293.15            293.15            293.15            293.15
  0.0001270765827            293.15            293.15       293.1500004       293.1514433       294.7155373       293.1506775       293.1500002            293.15       293.1499969       293.1499986            293.15            293.15            293.15            293.15            293.15            293.15            293.15
  0.0001536896689            293.15            293.15       293.1500011       293.1524441       295.0428398       293.1511943       293.1500004            293.15       293.1499962       293.1499983            293.15            293.15            293.15            293.15            293.15            293.15            293.15
  0.0001856219625            293.15            293.15       293.1500029       293.1541428       295.4341757       293.1520928       293.1500011            293.15       293.1499954       293.1499979            293.15            293.15            293.15            293.15            293.15            293.15            293.15
  0.0002239407148            293.15            293.15       293.1500074       293.1570218       295.9009913       293.1536451       293.1500028            293.15       293.1499945       293.1499974            293.15            293.15            293.15            293.15            293.15            293.15            293.15
  0.0002699019884            293.15            293.15       293.1500187       293.1618798       296.4556182       293.1563047        293.150007            293.15       293.1499934       293.1499969            293.15            293.15            293.15            293.15            293.15            293.15            293.15
  0.0003250351347            293.15       293.1500001       293.1500466       293.1700172       297.1113054        293.160815       293.1500176            293.15        293.149992       293.1499962            293.15            293.15            293.15            293.15            293.15            293.15            293.15
  0.0003911802278            293.15       293.1500002       293.1501152       293.1834807       297.8811616       293.1683591       293.1500439            293.15       293.1499904       293.1499953            293.15            293.15            293.15            293.15            293.15            293.15            293.15
  0.0004705543394            293.15       293.1500007       293.1502815       293.2053238       298.7768972       293.1807371       293.1501086            293.15       293.1499885       293.1499943            293.15            293.15            293.15            293.15            293.15            293.15            293.15
  0.0005658032734            293.15       293.1500023       293.1506772       293.2396867       299.8072385       293.2004865       293.1502653            293.15       293.1499862       293.1499928            293.15            293.15            293.15            293.15            293.15            293.15            293.15
  0.0006799700095            293.15       293.1500081       293.1515935       293.2911875       300.9768478       293.2307007       293.1506378       293.1500004       293.1499835        293.149991       293.1499999            293.15            293.15            293.15            293.15            293.15            293.15
  0.0008169700928            293.15       293.1500274       293.1536424        293.363087       302.2951615       293.2742501        293.151501       293.1500021       293.1499804       293.1499885       293.1499998            293.15            293.15            293.15            293.15            293.15            293.15
  0.0009814618316       293.1500003       293.1500902       293.1580029       293.4528849       303.7897416       293.3314797       293.1534272       293.1500101       293.1499768       293.1499852       293.1499996            293.15            293.15            293.15            293.15            293.15            293.15
   0.001179117227       293.1500013        293.150285        293.166652       293.5462349       305.5421014       293.3961568       293.1574944       293.1500441        293.149973       293.1499808       293.1499991            293.15            293.15            293.15            293.15            293.15            293.15
   0.001416111804       293.1500067       293.1508505       293.1820984       293.6139869       307.7288005       293.4509161       293.1653753       293.1501747       293.1499703       293.1499749       293.1499981       293.1499999            293.15            293.15            293.15            293.15            293.15
   0.001666544217       293.1500258       293.1521096       293.2031128       293.6269911       310.2742444       293.4696938        293.177202       293.1505395       293.1499738        293.149968       293.1499963       293.1499999            293.15            293.15            293.15            293.15            293.15
   0.001916976631       293.1500776        293.154362       293.2259032       293.6023661        313.082054       293.4480103       293.1916139       293.1513248       293.1499932       293.1499606       293.1499935       293.1499996            293.15            293.15            293.15            293.15            293.15
   0.002167409044       293.1501964       293.1578745       293.2462523       293.5719713        316.106739        293.397136       293.2066402       293.1527673       293.1500477       293.1499533       293.1499896       293.1499992            293.15            293.15            293.15            293.15            293.15
   0.002417841458       293.1504381       293.1627629       293.2600601       293.5594119       319.3032362       293.3349617       293.2197848       293.1551081       293.1501703       293.1499472       293.1499842       293.1499985            293.15            293.15            293.15            293.15            293.15
   0.002668273871       293.1508826        293.168911       293.2647062       293.5778648       322.6480117       293.2783838       293.2287007       293.1585299       293.1504114       293.1499451       293.1499772       293.1499974       293.1499999            293.15            293.15            293.15            293.15
   0.002918706284       293.1516343       293.1759363       293.2598164       293.6275199       326.1283044       293.2370045       293.2318449       293.1630865       293.1508402       293.1499524       293.1499687       293.1499955       293.1499998            293.15            293.15            293.15            293.15
   0.003169138698       293.1528156       293.1832166        293.247202       293.7019016       329.7362794       293.2130178       293.2288613        293.168648       293.1515433       293.1499777       293.1499592       293.1499927       293.1499996            293.15            293.15            293.15            293.15
   0.003419571111       293.1545553       293.1899668       293.2300128       293.7956781       333.4624212       293.2059243       293.2205508       293.1748778       293.1526182       293.1500341       293.1499498       293.1499887       293.1499992            293.15            293.15            293.15            293.15
   0.003670003524       293.1569708       293.1953622        293.211774       293.9048911       337.2950983       293.2128781       293.2085758       293.1812427       293.1541608       293.1501415       293.1499426       293.1499832       293.1499985       293.1499999            293.15            293.15            293.15
   0.003920435938       293.1601457       293.1986922       293.1956561       294.0262192       341.2298634        293.229425       293.1950078       293.1870589       293.1562483       293.1503276       293.1499414       293.1499762       293.1499974       293.1499998            293.15            293.15            293.15
   0.004170868351        293.164105       293.1994898        293.183701       294.1555522       345.2739998       293.2505841       293.1817688       293.1915858       293.1589187       293.1506281       293.1499515        293.149968       293.1499957       293.1499997            293.15            293.15            293.15
   0.004421300765       293.1687901       293.1976113       293.1765574       294.2890462       349.4424838       293.2718996       293.1703511       293.1941545       293.1621487       293.1510885       293.1499793       293.1499592       293.1499932       293.1499994            293.15            293.15            293.15
   0.004671733178       293.1740388       293.1932666       293.1740004       294.4244419       353.7495875       293.2899366       293.1617451       293.1942953       293.1658332       293.1517602       293.1500339       293.1499513       293.1499896       293.1499989       293.1499999            293.15            293.15
   0.004922165591       293.1795799       293.1870121       293.1750965       294.5619037       358.2043321       293.3030724       293.1563044       293.1918398       293.1697715       293.1526971       293.1501275       293.1499465       293.1499849       293.1499982       293.1499999            293.15            293.15
   0.005172598005       293.1850399       293.1797134       293.1783775       294.7018259       362.8135256       293.3097952       293.1537268       293.1869839       293.1736644       293.1539494       293.1502764       293.1499484       293.1499791       293.1499971       293.1499998            293.15            293.15
   0.005423030418       293.1899763       293.1723642         293.18232       294.8480907       367.5854791       293.3110533       293.1532562       293.1802793       293.1771364       293.1555544       293.1505026       293.1499607       293.1499723       293.1499956       293.1499997            293.15            293.15
   0.005673462831       293.1939374       293.1658254       293.1859175       295.0043543        372.512037       293.3140273        293.154049        293.172552       293.1797799       293.1575255       293.1508332       293.1499887       293.1499653       293.1499933       293.1499994            293.15            293.15
   0.005923895245       293.1965385       293.1607298        293.188872       295.1728489       377.5820973       293.3203005       293.1554706       293.1647584       293.1812204       293.1598392       293.1512999       293.1500382       293.1499592       293.1499904        293.149999       293.1499999            293.15
   0.006174327658       293.1975341       293.1574794       293.1914522       295.3531222       382.8075407       293.3270168       293.1572119       293.1577846       293.1811905       293.1624239       293.1519376       293.1501167       293.1499559       293.1499867       293.1499984       293.1499999            293.15
   0.006424760072       293.1968668        293.156259       293.1942068       295.5443382       388.1887149       293.3386764       293.1592823       293.1522933       293.1795948       293.1651514       293.1527822       293.1502348       293.1499578       293.1499823       293.1499975       293.1499998            293.15
   0.006675192485       293.1946787       293.1570741       293.1976846       295.7455146       393.7336767       293.3511438        293.161885       293.1486823       293.1765478       293.1678383       293.1538657       293.1504056        293.149968       293.1499776       293.1499963       293.1499996            293.15
   0.006925624898        293.191283       293.1598173       293.2022423       295.9570599       399.4388826       293.3697872       293.1652589       293.1471088       293.1723761       293.1702586       293.1552104       293.1506463       293.1499898        293.149973       293.1499946       293.1499994            293.15
   0.007176057312       293.1871446       293.1643073       293.2079525       296.1788213       405.3100186       293.3914658       293.1695516       293.1475014       293.1675905       293.1721712       293.1568216       293.1509772        293.150027       293.1499696       293.1499924        293.149999       293.1499999
   0.007426489725       293.1827798       293.1703043       293.2146388       296.4110276       411.3512651       293.4142185       293.1747508       293.1496422       293.1628138       293.1733581       293.1586794       293.1514217       293.1500844       293.1499687       293.1499897       293.1499985       293.1499999
   0.007676922139       293.1786532       293.1775762       293.2219714       296.6540599       417.5646302       293.4384462       293.1806718       293.1533208       293.1586898       293.1736663       293.1607329       293.1520051       293.1501685       293.1499721       293.1499865       293.1499978       293.1499998
   0.007927354552       293.1751924       293.1858221        293.229581       296.9082188       423.9528788       293.4640008       293.1870327        293.158334       293.1558046       293.1730472       293.1628962       293.1527525        293.150288        293.149982        293.149983       293.1499968       293.1499997
   0.008177786965       293.1727999       293.1946774       293.2371017       297.1738267       430.5195426       293.4909459       293.1934665       293.1644198       293.1546137       293.1715832       293.1650502       293.1536865       293.1504546       293.1500009       293.1499797       293.1499955       293.1499995
   0.008428219379       293.1718821       293.2036017       293.2441309       297.4506456       437.2657736       293.5190511       293.1994794       293.1712209       293.1553786       293.1694984       293.1670509       293.1548213       293.1506825       293.1500316       293.1499771       293.1499938       293.1499993
   0.008678651792        293.172798       293.2119243       293.2502631       297.7387839       444.1948907       293.5480785       293.2045151       293.1783364       293.1581549         293.16714         293.16875       293.1561607       293.1509886       293.1500779       293.1499764       293.1499918       293.1499989
   0.008929084205       293.1757671       293.2189535       293.2551019       298.0383758       451.3103387       293.5777451       293.2080714       293.1853023       293.1628028       293.1649456       293.1700173        293.157692       293.1513925       293.1501445       293.1499787       293.1499894       293.1499983
   0.009179516619       293.1809255       293.2240504       293.2582542       298.3496966        458.616016        293.607864       293.2097415        293.191588       293.1690031       293.1633834       293.1707684       293.1593834       293.1519153       293.1502382       293.1499857        293.149987       293.1499976
   0.009429949032       293.1880799       293.2267935       293.2594134       298.6732526       466.1164398       293.6384433       293.2093326       293.1966386        293.176276       293.1628766       293.1709884       293.1611821       293.1525782       293.1503674       293.1499993       293.1499848       293.1499966
   0.009680381446       293.1967108       293.2270014       293.2584576       299.0097648        473.816809       293.6697256       293.2069074       293.1999517       293.1840041       293.1637319       293.1707445       293.1630163       293.1534004       293.1505428       293.1500214       293.1499832       293.1499954
   0.009930813859       293.2060145       293.2247724       293.2555174       299.3601728       481.7230148       293.7021926       293.2027722       293.2011554       293.1914645        293.166089       293.1701872       293.1648007       293.1543964       293.1507771       293.1500545       293.1499831       293.1499939
    0.01018124627       293.2149858       293.2205535       293.2509921       299.7255928       489.8416939       293.7365387       293.1974488       293.2001647        293.197884       293.1698804       293.1695397        293.166446       293.1555726       293.1510851       293.1501023       293.1499855       293.1499921
    0.01043167869       293.2225363       293.2150655        293.245517       300.1072631       498.1801426       293.7736183       293.1916276       293.1971548       293.2025244       293.1748055       293.1690682       293.1678717       293.1569246       293.1514829       293.1501694       293.1499914       293.1499902
     0.0106821111       293.2276266        293.209194       293.2398915       300.5064505       506.7438786       293.8143612       293.1860965       293.1925718       293.2047859       293.1803395        293.169034       293.1690198       293.1584341       293.1519877       293.1502625       293.1500022       293.1499884
    0.01093254351        293.229425       293.2038684       293.2349831       300.9243533       515.5377574         293.85966       293.1816537       293.1870794       293.2043071       293.1857854       293.1696396       293.1698635       293.1600674       293.1526162       293.1503895       293.1500195       293.1499869
    0.01118297593       293.2274337       293.1999236       293.2316169       301.3620192       524.5666618       293.9100842       293.1790101       293.1814689       293.2010419       293.1903614       293.1709778       293.1704156       293.1617748       293.1533829       293.1505601       293.1500454       293.1499863
    0.01143340834       293.2216434        293.197973       293.2304628       301.8202859       533.8353109       293.9664034       293.1786944       293.1765438       293.1953473       293.1933072       293.1729918       293.1707272       293.1634932       293.1542985       293.1507857       293.1500825       293.1499874
    0.01168384075       293.2126487       293.1983114       293.2319368       302.2997719       543.3481968       294.0287198       293.1809827       293.1729999       293.1879337       293.1940367       293.1754662       293.1708785       293.1651492       293.1553677        293.151079       293.1501349       293.1499909
    0.01193427317       293.2017767       293.2008672       293.2361166       302.8009223       553.1094124       294.0968879       293.1858312        293.171323       293.1797703        293.192226        293.178034       293.1709608       293.1666671       293.1565865       293.1514544       293.1502076       293.1499982
    0.01218470558       293.1906024       293.2052691       293.2427115       303.3239187       563.1220249       294.1704892       293.1928596       293.1717222       293.1719562       293.1878914       293.1802224       293.1710529       293.1679754         293.15794       293.1519265        293.150307       293.1500101
    0.01243513799       293.1807998       293.2109182        293.251117       303.8691682       573.3901622       294.2490507       293.2014086       293.1741033       293.1655642       293.1814295       293.1815291        293.171198       293.1690152       293.1594017       293.1525099       293.1504404       293.1500281
    0.01268557041        293.174001       293.2171002       293.2605055       304.4370692       583.9174223       294.3320371       293.2106546       293.1780867       293.1614852       293.1736036       293.1815146       293.1713829        293.169745       293.1609317       293.1532177       293.1506168       293.1500539
    0.01293600282       293.1715564       293.2231352       293.2699567       305.0281124        594.707108       294.4189458       293.2197619       293.1831655       293.1603061       293.1654874       293.1798941       293.1715282        293.170143       293.1624771       293.1540596       293.1508464       293.1500908
    0.01318643523       293.1742345       293.2285289       293.2785927       305.6429363       605.7621775       294.5093785       293.2280074       293.1888355       293.1622466       293.1582803       293.1766119       293.1714944       293.1702059       293.1639741         293.15504       293.1511404       293.1501425
    0.01343686765       293.1821073       293.2330702       293.2857039        306.282345       617.0848456       294.6030859       293.2348796       293.1946922       293.1671537        293.153151       293.1718932       293.1711075       293.1699445       293.1653514       293.1561563       293.1515111       293.1502139
    0.01368730006       293.1944597       293.2368709       293.2908569       306.9472729       628.6753089       294.6999998       293.2401448       293.2004637       293.1745828       293.1510432       293.1662451       293.1701893       293.1693787       293.1665349        293.157396       293.1519709       293.1503108
    0.01393773247         293.21013       293.2403312       293.2939544        307.638687       640.5283985       294.8001758        293.243863        293.206064       293.1838978        293.152507       293.1604197       293.1686168       293.1685304       293.1674534       293.1587348       293.1525314       293.1504401
    0.01418816489       293.2274812       293.2440406        293.295247       308.3573034       652.6211196       294.9037731       293.2463567       293.2115562       293.1943189       293.1575883       293.1553251       293.1663435       293.1674188       293.1680437       293.1601356       293.1532028       293.1506097
     0.0144385973       293.2447038       293.2486227       293.2952809       309.1021032       664.8274179       295.0108219       293.2481362       293.2171128       293.2049828       293.1657787       293.1518921       293.1634612       293.1660597       293.1682563       293.1615477       293.1539914        293.150829
    0.01468902971       293.2601867       293.2545482       293.2947644       309.8457014       674.8971644       295.1186951       293.2497816       293.2229357       293.2150464       293.1761427        293.150902       293.1602071        293.164471       293.1680594       293.1629076       293.1548988       293.1511084
    0.01493946213       293.2727945       293.2619827       293.2943007       310.5035963       677.3343677       295.2159135       293.2517623       293.2291529       293.2237844       293.1874504       293.1528633       293.1569671       293.1626827       293.1674429       293.1641416       293.1559193       293.1514587
    0.01518989454        293.281986       293.2706789       293.2940753       311.0980023       679.4240494       295.2924176       293.2542372       293.2357199       293.2306795       293.1984187       293.1578564       293.1542393       293.1607456       293.1664205       293.1651706       293.1570384       293.1518913
    0.01544032695       293.2877794       293.2800253       293.2936781       311.6609427       682.0480512       295.3478178       293.2569205       293.2423512       293.2354898       293.2079286       293.1655198        293.152561       293.1587422       293.1650314       293.1659159       293.1582307       293.1524166
    0.01569075937       293.2905996       293.2891157       293.2921821       312.2297684        684.931604       295.3925515       293.2590681       293.2485036        293.238273       293.2152293       293.1750497       293.1524213       293.1568058       293.1633404        293.166307       293.1594592       293.1530433
    0.01594119178        293.291093       293.2968718       293.2885309       312.8281145        687.842555       295.4419526       293.2596464       293.2534906       293.2392896       293.2199329       293.1853803         293.15418       293.1551114       293.1614377       293.1662887       293.1606745       293.1537769
    0.01619162419       293.2899275       293.3022396       293.2820979       313.4625598       690.6873259       295.5083662       293.2576584       293.2565521       293.2389046       293.2220717       293.1953273         293.15798        293.153878       293.1594364       293.1658289       293.1618164       293.1546181
    0.01644205661       293.2876625       293.3043688       293.2730993       314.1259161       693.4800823       295.5961599       293.2524871       293.2569968       293.2374227        293.221966       293.2038007       293.1636826       293.1533466       293.1574694        293.164924       293.1628168        293.155561