# Probe 0 (2.4 2.295 1.5)
#           Probe                 0
#            Time
    1.1999904e-06            101325
  2.639965056e-06            101325
  4.367944597e-06            101325
  6.441505713e-06            101325
   8.92973777e-06            101325
  1.191552707e-05            101325
  1.549838863e-05            101325
  1.979776087e-05            101325
  2.495674128e-05            101325
  3.114713435e-05            101325
  3.857523794e-05            101325
  4.748896225e-05            101325
  5.818543142e-05            101325
  7.102064463e-05            101325
  8.642131685e-05            101325
  0.0001049009832            101325
  0.0001270765827            101325
  0.0001536896689            101325
  0.0001856219625            101325
  0.0002239407148            101325
  0.0002699019884            101325
  0.0003250351347            101325
  0.0003911802278            101325
  0.0004705543394            101325
  0.0005658032734            101325
  0.0006799700095            101325
  0.0008169700928            101325
  0.0009814618316            101325
   0.001179117227            101325
   0.001416111804       101325.0001
   0.001666544217       101325.0009
   0.001916976631        101325.004
   0.002167409044        101325.014
   0.002417841458       101325.0418
   0.002668273871       101325.1098
   0.002918706284       101325.2597
   0.003169138698        101325.562
   0.003419571111       101326.1263
   0.003670003524        101327.108
   0.003920435938       101328.7099
   0.004170868351       101331.1724
   0.004421300765       101334.7492
   0.004671733178       101339.6651
   0.004922165591        101346.058
   0.005172598005       101353.9088
   0.005423030418       101362.9703
   0.005673462831        101372.714
   0.005923895245       101382.3167
   0.006174327658       101390.7105
   0.006424760072       101396.7143
   0.006675192485       101399.2422
   0.006925624898       101397.5565
   0.007176057312       101391.5018
   0.007426489725       101381.7487
   0.007676922139       101369.5831
   0.007927354552       101356.8371
   0.008177786965       101345.5693
   0.008428219379       101337.6824
   0.008678651792       101334.5611
   0.008929084205       101336.8574
   0.009179516619       101344.5697
   0.009429949032       101357.0528
   0.009680381446       101373.0451
   0.009930813859        101390.823
    0.01018124627       101408.4057
    0.01043167869       101423.7154
     0.0106821111       101434.7195
    0.01093254351       101439.6565
    0.01118297593       101437.3767
    0.01143340834       101427.7676
    0.01168384075       101411.9442
    0.01193427317       101391.9939
    0.01218470558       101370.7387
    0.01243513799        101351.322
    0.01268557041       101336.7402
    0.01293600282       101329.3422
    0.01318643523       101330.4977
    0.01343686765       101340.2799
    0.01368730006       101357.3723
    0.01393773247       101379.2828
    0.01418816489       101402.9586
     0.0144385973       101425.4076
    0.01468902971       101444.2634
    0.01493946213       101458.1596
    0.01518989454       101466.8615
    0.01544032695       101471.1356
    0.01569075937       101472.2877
    0.01594119178       101471.7559
    0.01619162419       101470.6456
    0.01644205661       101469.4701
    0.01669248902       101468.1571
    0.01694292143       101466.2074
    0.01719335385       101462.9215
    0.01744378626       101457.6712
    0.01769421867       101450.1097
    0.01794465109       101440.3977
     0.0181950835       101429.3175
    0.01844551591       101418.1762
    0.01869594833       101408.5405
    0.01894638074       101401.9019
    0.01919681315       101399.3595
    0.01944724557       101401.3814
    0.01969767798       101407.6643
    0.01994811039       101417.2218
    0.02019854281       101428.5356
    0.02044897522       101439.9148
    0.02069940763       101450.0082
    0.02094984005       101458.0053
    0.02120027246       101463.7261
    0.02145070487       101467.5872
    0.02170113729       101470.3961
     0.0219515697       101473.0232
    0.02220200211       101476.1113
    0.02245243453       101479.6643
    0.02270286694       101483.0481
    0.02295329935       101485.2532
    0.02320373177       101485.2137
    0.02345416418       101482.1764
    0.02370459659       101475.9716
    0.02395502901       101467.1022
    0.02420546142       101456.6913
    0.02445589384       101446.2773
    0.02470632625       101437.6437
    0.02495675866       101432.3885
    0.02520719108        101431.548
    0.02545762349       101435.5158
     0.0257080559       101443.9769
    0.02595848832       101456.0031
    0.02620892073       101470.2573
    0.02645935314       101485.2069
    0.02670978556       101499.3563
    0.02696021797       101511.3862
    0.02721065038       101520.3467
     0.0274610828        101525.706
    0.02771151521       101527.3133
    0.02796194762       101525.2236
    0.02821238004       101519.6599
    0.02846281245       101510.8577
    0.02871324486       101499.0539
    0.02896367728       101484.6013
    0.02921410969       101468.1117
     0.0294645421       101450.5323
    0.02971497452       101433.1046
    0.02996540693       101417.2651
    0.03021583934       101404.4893
    0.03046627176       101396.0832
    0.03071670417       101393.1301
    0.03096713658       101396.4169
      0.031217569       101406.2452
    0.03146800141        101422.326
    0.03171843382       101443.7493
    0.03196886624       101468.9864
    0.03221929865       101496.0229
    0.03246973106       101522.6029
    0.03272016348        101546.528
    0.03297059589       101565.8277
     0.0332210283       101578.9002
    0.03347146072       101584.7451
    0.03372189313       101583.1294
    0.03397232554       101574.6849
    0.03422275796       101560.8776
    0.03447319037       101543.7479
    0.03472362278       101525.4326
     0.0349740552        101507.782
    0.03522448761       101492.2402
    0.03547492002       101479.7596
    0.03572535244       101470.6918
    0.03597578485        101464.683
    0.03622621726       101460.8965
    0.03647664968        101458.351
    0.03672708209       101456.2164
     0.0369775145       101454.0629
    0.03722794692       101451.8747
    0.03747837933       101449.9592
    0.03772881174       101448.8544
    0.03797924416       101449.2275
    0.03822967657       101451.6998
    0.03848010898       101456.6685
     0.0387305414       101464.1808
    0.03898097381       101473.8891
    0.03923140622       101485.1187
    0.03948183864       101497.0146
    0.03973227105       101508.7021
    0.03998270346       101519.3983
    0.04023313588       101528.4519
    0.04048356829       101535.3691
     0.0407340007       101539.7507
    0.04098443312       101541.2619
    0.04123486553       101539.6675
    0.04148529795        101534.895
    0.04173573036       101527.1108
    0.04198616277       101516.7352
    0.04223659519       101504.5254
     0.0424870276       101491.5963
    0.04273746001       101479.3046
    0.04298789243        101469.049
    0.04323832484       101462.0705
    0.04348875725       101459.3028
    0.04373918967       101461.2447
    0.04398962208       101467.8576
    0.04424005449       101478.5406
    0.04449048691        101492.206
    0.04474091932       101507.4448
    0.04499135173       101522.7233
    0.04524178415       101536.4639
    0.04549221656       101547.2594
    0.04574264897       101554.0232
    0.04599308139       101556.1115
     0.0462435138       101553.4014
    0.04649394621       101546.2672
    0.04674437863       101535.5323
    0.04699481104       101522.3696
    0.04724524345        101508.042
    0.04749567587       101493.8319
    0.04774610828       101480.9298
    0.04799654069       101470.2967
    0.04824697311       101462.5678
    0.04849740552        101458.023
    0.04874783793       101456.6218
    0.04899827035       101458.1407
    0.04924870276       101462.2175
    0.04949913517       101468.4436
    0.04974956759       101476.4935
             0.05       101486.1441
          0.05025       101497.1918
           0.0505       101509.4147
          0.05075       101522.4399
            0.051       101535.6708
          0.05125       101548.2748
           0.0515       101559.2679
          0.05175       101567.6685
            0.052       101572.6371
          0.05225       101573.5729
           0.0525       101570.1909
          0.05275        101562.541
            0.053       101551.0281
          0.05325       101536.3813
           0.0535       101519.5867
          0.05375       101501.8246
            0.054       101484.3916
          0.05425       101468.6179
           0.0545       101455.7699
          0.05475       101446.9453
            0.055       101442.9566
          0.05525       101444.2651
           0.0555        101450.879
          0.05575       101462.3626
            0.056       101477.9121
          0.05625       101496.4247
           0.0565       101516.5546
          0.05675       101536.7946
            0.057       101555.6128
          0.05725       101571.6509
           0.0575       101583.8958
          0.05775       101591.7616
            0.058       101595.0853
          0.05825       101594.0667
           0.0585       101589.2108
          0.05875       101581.2779
            0.059       101571.1936
          0.05925       101559.9746
           0.0595       101548.6608
          0.05975       101538.1177
             0.06       101528.9271
          0.06025       101521.4419
           0.0605       101515.7404
          0.06075       101511.6427
            0.061        101508.809
          0.06125       101506.8684
           0.0615       101505.5422
          0.06175       101504.7304
            0.062       101504.5411
          0.06225       101505.2584
           0.0625       101507.2477
          0.06275       101510.8214
            0.063        101516.106
          0.06325       101522.9576
           0.0635       101530.9446
          0.06375       101539.3995
            0.064       101547.5356
          0.06425       101554.5964
           0.0645       101560.0024
          0.06475       101563.4576
            0.065       101564.9783
          0.06525       101564.8433
           0.0655       101563.4552
          0.06575       101561.2414
            0.066       101558.5732
          0.06625       101555.7678
           0.0665       101553.1367
          0.06675       101551.0306
            0.067        101549.864
          0.06725       101550.0962
           0.0675       101552.1726
          0.06775       101556.4265
            0.068       101562.9745
          0.06825       101571.6288
           0.0685         101581.85
          0.06875       101592.7788
            0.069       101603.3474
          0.06925       101612.4293
           0.0695       101618.9936
          0.06975        101622.249
             0.07       101621.7708
          0.07025       101617.5875
           0.0705       101610.1877
          0.07075       101600.4468
            0.071        101589.506
          0.07125       101578.6051
           0.0715       101568.9004
          0.07175       101561.3067
            0.072       101556.4092
          0.07225       101554.4355
           0.0725       101555.2878
          0.07275        101558.609
            0.073       101563.9112
          0.07325       101570.6829
           0.0735       101578.4597
          0.07375       101586.8432
            0.074       101595.4894
          0.07425       101604.0959
           0.0745        101612.402
          0.07475       101620.2038
            0.075       101627.3672
          0.07525       101633.8156
           0.0755       101639.4899
          0.07575          101644.3
            0.076       101648.1056
          0.07625       101650.7342
           0.0765        101652.011
          0.07675       101651.8029
            0.077       101650.0707
          0.07725       101646.9066
           0.0775       101642.5482
          0.07775       101637.3659
            0.078       101631.8378
          0.07825        101626.498
           0.0785       101621.8797
          0.07875       101618.4694
            0.079       101616.6809
          0.07925       101616.8451
           0.0795       101619.2062
          0.07975        101623.911
             0.08       101630.9774
          0.08025       101640.2482
           0.0805       101651.3525
          0.08075       101663.7004
            0.081       101676.5238
          0.08125       101688.9626
           0.0815       101700.1833
          0.08175       101709.5084
            0.082       101716.5236
          0.08225       101721.1362
           0.0825       101723.5611
          0.08275       101724.2393
            0.083       101723.7086
          0.08325       101722.4668
           0.0835       101720.8651
    0.08374626866       101719.0894
    0.08399253731       101717.1086
    0.08423880597       101714.8321
    0.08448507463       101712.1921
    0.08472749534       101709.2795
    0.08496991604       101706.2494
    0.08521233675       101703.4504
    0.08545475746       101701.3391
    0.08569320406       101700.3911
    0.08593165066       101700.9344
    0.08617009726       101703.1777
    0.08640854386       101707.1268
    0.08664287931       101712.4868
    0.08687721476       101718.9724
    0.08711155021       101726.1291
    0.08734588566       101733.4427
    0.08758022111       101740.3917
    0.08781021702       101746.3822
    0.08804021292       101751.1279
    0.08827020883       101754.2999
    0.08849578174       101755.6993
    0.08872135464       101755.4018
    0.08894692755       101753.5781
      0.089167989       101750.6375
    0.08938905045       101747.0438
     0.0896101119       101743.4291
    0.08983117335       101740.5195
    0.09004753136       101739.0541
    0.09026388937       101739.5716
    0.09048024739       101742.5051
     0.0906966054       101748.0315
    0.09091296342       101756.0646
    0.09112428985       101766.0198
    0.09133561628       101777.5636
    0.09154694271       101790.1056
    0.09175826914       101803.0455
    0.09196959558       101815.8269
    0.09218092201        101827.973
    0.09238668722       101838.8352
    0.09259245243       101848.4856
    0.09279821764        101856.728
    0.09300398285       101863.3908
    0.09320974806        101868.302
    0.09341551327        101871.291
    0.09361504317       101872.2154
    0.09381457307       101871.1101
    0.09401410297        101867.982
    0.09421363287        101862.972
    0.09441316277       101856.3846
    0.09461269268       101848.6906
    0.09481222258       101840.4999
    0.09500436248       101832.7836
    0.09519650239       101825.8718
    0.09538864229       101820.3257
    0.09558078219       101816.5664
     0.0957729221       101814.8193
      0.095965062       101815.0912
    0.09615720191       101817.1851
    0.09634934181       101820.7514
    0.09654148172       101825.3666
      0.096723509        101830.325
    0.09690553627       101835.5362
    0.09708756355       101840.7768
    0.09726959083        101845.924
    0.09745161811       101850.9335
    0.09763364539        101855.811
    0.09781567266       101860.5813
    0.09799769994       101865.2602
    0.09817972722       101869.8382
     0.0983617545       101874.2781
    0.09854378178       101878.5251
    0.09872580905       101882.5291
    0.09890783633       101886.2625
    0.09908986361       101889.7424
    0.09927189089       101893.0422
    0.09945391817       101896.2836
    0.09963594544       101899.6075
    0.09981797272       101903.1311
              0.1       101906.9065
     0.1001748252       101910.7299
     0.1003490391       101914.5954
     0.1005226438       101918.2914
     0.1006956416       101921.5751
     0.1008680344        101924.219
     0.1010398245       101926.0566
      0.101211014       101927.0179
     0.1013816048        101927.148
     0.1015515992       101926.5963
     0.1017209992       101925.5827
     0.1018898069       101924.3706
     0.1020580244       101923.2131
     0.1022256536       101922.3199
     0.1023926968       101921.8425
     0.1025591559       101921.8784
      0.102725033       101922.4894
     0.1028903301       101923.7246
     0.1030550492       101925.6355
     0.1032191924       101928.2785
     0.1033827616       101931.7043
      0.103545759       101935.9346
     0.1037081864       101940.9418
     0.1038700459        101946.635
     0.1040313394       101952.8578
      0.104192069       101959.3956
     0.1043522366       101965.9893
     0.1045112881       101972.3382
     0.1046697853       101978.1968
     0.1048277303       101983.3401
      0.104985125       101987.6162
     0.1051419712       101990.9678
     0.1052977283       101993.4249
     0.1054529445       101995.1119
     0.1056076218       101996.1845
      0.105761762       101996.8155
      0.105915367       101997.1765
     0.1060684386       101997.4226
     0.1062209787       101997.6816
     0.1063729892       101998.0466
     0.1065244719       101998.5719
     0.1066759546       101999.2757
     0.1068269095       102000.1388
     0.1069773383       102001.1227
     0.1071272431       102002.1809
     0.1072766255       102003.2709
     0.1074260079       102004.3633
     0.1075748681       102005.4255
     0.1077232077       102006.4271
     0.1078710286       102007.3352
     0.1080188496       102008.1261
     0.1081661519       102008.7901
     0.1083129373       102009.3523
     0.1084592077        102009.873
     0.1086049649       102010.4457
     0.1087502106       102011.1894
     0.1088954563        102012.242
     0.1090401906        102013.739
     0.1091844153       102015.8092
     0.1093281322       102018.5557
      0.109471343       102022.0423
     0.1096140495       102026.2726
     0.1097562536       102031.1697
     0.1098979569       102036.5681
     0.1100396602       102042.2391
     0.1101808628       102047.8502
     0.1103215665       102053.0524
     0.1104622702       102057.5083
     0.1106024749        102060.876
     0.1107421824       102062.8956
     0.1108813945       102063.3966
     0.1110206067       102062.3077
     0.1111593234       102059.6738
     0.1112975464       102055.6609
     0.1114357695       102050.5225
     0.1115734989       102044.6327
     0.1117107364       102038.4065
     0.1118479739       102032.2534
     0.1119847195       102026.6069
      0.112120975       102021.8218
     0.1122572304       102018.1593
     0.1123929958       102015.8118
     0.1125287612       102014.8467
     0.1126640364       102015.2404
     0.1127988233       102016.8675
     0.1129336101       102019.5484
     0.1130679087       102023.0569
     0.1132022072       102027.1949
     0.1133360173       102031.7733
     0.1134693409       102036.6698
     0.1136026645       102041.8415
     0.1137355015       102047.2664
     0.1138683384       102053.0044
     0.1140006889       102059.0943
     0.1141330393       102065.6113
     0.1142649031       102072.5546
     0.1143967669       102079.9278
     0.1145281442        102087.654
     0.1146595214       102095.6783
     0.1147904121       102103.8623
     0.1149208179       102112.0758
     0.1150512238       102120.2013
     0.1151811449       102128.0465
     0.1153105831       102135.4443
       0.11543954       102142.2313
     0.1155680175       102148.2587
     0.1156964951       102153.4191
     0.1158244932       102157.5926
     0.1159520138       102160.7138
     0.1160790585       102162.7458
     0.1162056292       102163.6804
     0.1163317276       102163.5428
     0.1164573555       102162.3995
     0.1165825146       102160.3656
     0.1167076737       102157.5943
     0.1168323641       102154.2992
     0.1169565874       102150.7113
     0.1170808108        102147.048
     0.1172045671       102143.5291
     0.1173283235       102140.2983
     0.1174516128       102137.4559
     0.1175749022       102135.0017
     0.1176981915       102132.8745
     0.1178210121       102130.9601
     0.1179438327       102129.0953
     0.1180661844       102127.1295
     0.1181885362       102124.9241
     0.1183104192       102122.4097
     0.1184323022        102119.571
     0.1185537164       102116.4966
     0.1186751307       102113.3359
     0.1187960761       102110.3329
     0.1189165546       102107.7667
     0.1190370331       102105.9296
     0.1191570446        102105.117
     0.1192770561       102105.5645
     0.1193966006        102107.424
     0.1195161451       102110.7482
     0.1196352227       102115.4515
     0.1197543002       102121.3668
     0.1198729108       102128.1938
     0.1199910563       102135.5906
     0.1201092017       102143.2252
      0.120226882       102150.7217
      0.120344099       102157.7822
      0.120461316       102164.2019
     0.1205780697       102169.8015
     0.1206943619       102174.5122
     0.1208106541       102178.3558
     0.1209264849       102181.3863
     0.1210423156         102183.73
     0.1211581464       102185.5163
     0.1212735138        102186.867
     0.1213888812       102187.9005
     0.1215037853       102188.7052
     0.1216186894       102189.3572
     0.1217335935       102189.9095
     0.1218480323       102190.3945
     0.1219624712        102190.829
     0.1220764449       102191.2088
     0.1221899553       102191.5182
     0.1223034657       102191.7356
     0.1224165128       102191.8358
     0.1225295599       102191.7969
     0.1226421436       102191.6016
     0.1227547274       102191.2363
     0.1228668479       102190.6941
     0.1229789683       102189.9681
     0.1230910888       102189.0569
      0.123202744       102187.9702
     0.1233143993       102186.7168
     0.1234255893       102185.3233
     0.1235367793       102183.8135
     0.1236479693       102182.2232
     0.1237586921       102180.6032
     0.1238694149       102178.9986
     0.1239801377       102177.4704
     0.1240903914       102176.0931
      0.124200645       102174.9319
     0.1243108987       102174.0558
     0.1244206812       102173.5234
     0.1245304637       102173.3674
     0.1246402461       102173.5999
     0.1247500286       102174.2058
     0.1248598111       102175.1445
     0.1249691163       102176.3502
     0.1250784214       102177.7572
     0.1251877266       102179.2983
     0.1252970318       102180.9209
     0.1254058554       102182.5901
     0.1255146791       102184.3195
     0.1256235027       102186.1531
     0.1257318427       102188.1617
     0.1258401827       102190.4614
     0.1259485227       102193.1779
     0.1260563769       102196.4224
      0.126164231       102200.3168
     0.1262720852       102204.9382
     0.1263794513       102210.2883
     0.1264868174       102216.3534
     0.1265941836       102223.0368
     0.1267010594        102230.149
     0.1268079353        102237.519
     0.1269148112       102244.9168
     0.1270211945        102252.071
     0.1271275779       102258.7899
     0.1272334687        102264.852
     0.1273393596       102270.1447
     0.1274447579       102274.5648
     0.1275501562        102278.117
     0.1276550621       102280.8265
     0.1277599679       102282.7951
     0.1278643812       102284.1328
     0.1279687945       102284.9727
     0.1280732078       102285.4219
     0.1281771262        102285.553
     0.1282810446       102285.3968
     0.1283849631       102284.9381
     0.1284883843       102284.1324
     0.1285918056       102282.9098
     0.1286952268       102281.1998
     0.1287981484       102278.9589
       0.12890107       102276.1542
     0.1290039916       102272.8008
     0.1291064112        102268.984
     0.1292088307       102264.8081
     0.1293112503        102260.445
     0.1294136698       102256.1056
     0.1295155824       102252.0388
     0.1296174949        102248.446
     0.1297194074       102245.5245
     0.1298208104       102243.4291
     0.1299222133       102242.2205
     0.1300236163       102241.9121
     0.1301245071       102242.4286
     0.1302253979       102243.6115
     0.1303262888       102245.2435
     0.1304271796       102247.0753
      0.130527553       102248.8462
     0.1306279265       102250.3392
     0.1307282999       102251.3748
     0.1308281533       102251.8428
     0.1309280066       102251.7303
       0.13102786        102251.117
     0.1311277134       102250.1776
     0.1312270412       102249.1673
      0.131326369       102248.3707
     0.1314256969       102248.0808
     0.1315250247       102248.5564
     0.1316243525        102249.991
     0.1317231463       102252.4765
     0.1318219401       102256.0325
     0.1319207339       102260.5845
     0.1320195277       102265.9792
     0.1321177817       102271.9678
     0.1322160356       102278.3249
     0.1323142896       102284.7795
     0.1324120007       102291.0316
     0.1325097118       102296.8789
     0.1326074229       102302.1239
      0.132705134       102306.6224
     0.1328022962       102310.2718
     0.1328994583       102313.0768
     0.1329966205       102315.0711
     0.1330937827       102316.3324
     0.1331909448       102316.9661
      0.133288107       102317.0865
     0.1333847075        102316.803
     0.1334813081        102316.205
     0.1335779086       102315.3585
     0.1336745092       102314.3114
     0.1337705415       102313.1087
     0.1338665738       102311.7811
     0.1339626061       102310.3708
     0.1340580667       102308.9381
     0.1341535274       102307.5325
     0.1342489881       102306.2126
     0.1343444488       102305.0309
     0.1344393309       102304.0328
      0.134534213        102303.234
     0.1346290951        102302.642
     0.1347239773       102302.2506
     0.1348182737       102302.0432
     0.1349125702       102301.9923
     0.1350068666       102302.0681
      0.135101163       102302.2384
     0.1351954595       102302.4694
     0.1352897559       102302.7263
     0.1353840523       102302.9732
     0.1354777443       102303.1731
     0.1355714363       102303.2927
     0.1356651283       102303.2995
     0.1357588202       102303.1648
     0.1358525122       102302.8643
     0.1359462042        102302.382
     0.1360398961       102301.7189
     0.1361335881       102300.8939
     0.1362266513        102299.951
     0.1363197144        102298.943
     0.1364127776       102297.9537
     0.1365058408       102297.0948
     0.1365989039       102296.4981
     0.1366919671       102296.3013
     0.1367850303       102296.6176
     0.1368780934       102297.5537
     0.1369711566       102299.1735
     0.1370635598       102301.4683
     0.1371559629        102304.408
      0.137248366       102307.9107
     0.1373407692       102311.8572
     0.1374331723       102316.0974
      0.137524901       102320.4298
     0.1376166297       102324.7137
     0.1377083583       102328.7925
      0.137800087        102332.543
     0.1378918157       102335.8876
     0.1379835444       102338.7988
      0.138075273       102341.2946
     0.1381663015       102343.4104
     0.1382573299       102345.2345
     0.1383483584       102346.8397
     0.1384393868       102348.2933
     0.1385304153       102349.6477
     0.1386214437       102350.9333
     0.1387124722       102352.1531
     0.1388035006        102353.285
     0.1388945291       102354.2893
     0.1389855575        102355.121
      0.139076586       102355.7454
     0.1391676144       102356.1516
     0.1392578843       102356.3631
     0.1393481542       102356.4481
     0.1394384241       102356.5111
     0.1395286939       102356.6917
     0.1396189638       102357.1519
     0.1397084555       102358.0492
     0.1397979472       102359.5362
     0.1398874389       102361.7296
     0.1399769306       102364.6937
     0.1400664223       102368.4255
      0.140155914       102372.8457
     0.1402454057       102377.7986
     0.1403340838        102383.013
     0.1404227619       102388.2646
     0.1405114401       102393.2589
     0.1406001182       102397.7004
     0.1406887963       102401.3159
     0.1407774744       102403.8964
     0.1408661526       102405.3039
      0.140953978       102405.4936
     0.1410418035       102404.5324
     0.1411296289       102402.5606
     0.1412174544       102399.7994
     0.1413052799       102396.5299
     0.1413931053       102393.0658
     0.1414809308       102389.7218
       0.14156786         102386.81
     0.1416547893       102384.5192
     0.1417417186       102383.0002
     0.1418286479       102382.3189
     0.1419155772       102382.4539
     0.1420025064       102383.3015
     0.1420894357       102384.6878
      0.142176365       102386.3863
     0.1422632943       102388.1389
     0.1423502235       102389.6724
     0.1424371528        102390.726
     0.1425240821       102391.0711
     0.1426110114       102390.5261
     0.1426979407       102388.9699
     0.1427848699       102386.3544
     0.1428717992       102382.7134
     0.1429576811       102378.2231
     0.1430435631       102373.0328
      0.143129445       102367.3871
      0.143215327       102361.5666
     0.1433012089       102355.8635
     0.1433870908       102350.5581
     0.1434729728       102345.8977
     0.1435588547       102342.0801
     0.1436447366       102339.2431
     0.1437306186       102337.4594
     0.1438165005        102336.736
     0.1439023825        102337.018
     0.1439882644       102338.1952
     0.1440741463       102340.1118
     0.1441588014       102342.5402
     0.1442434564       102345.2987
     0.1443281115       102348.1644
     0.1444127665       102350.9464
     0.1444974216       102353.4791
     0.1445820766        102355.641
     0.1446667317       102357.3639
     0.1447513868       102358.6375
     0.1448360418       102359.5098