# Probe 0 (2.4 2.295 1.5)
#           Probe                 0
#            Time
    1.1999904e-06            101325
  2.639965056e-06            101325
  4.367944597e-06            101325
  6.441505713e-06            101325
   8.92973777e-06            101325
  1.191552707e-05            101325
  1.549838863e-05            101325
  1.979776087e-05            101325
  2.495674128e-05            101325
  3.114713435e-05            101325
  3.857523794e-05            101325
  4.748896225e-05            101325
  5.818543142e-05            101325
  7.102064463e-05            101325
  8.642131685e-05            101325
  0.0001049009832            101325
  0.0001270765827            101325
  0.0001536896689            101325
  0.0001856219625            101325
  0.0002239407148            101325
  0.0002699019884            101325
  0.0003250351347            101325
  0.0003911802278            101325
  0.0004705543394            101325
  0.0005658032734            101325
  0.0006799700095            101325
  0.0008169700928            101325
  0.0009814618316            101325
   0.001179117227            101325
   0.001416111804       101325.0001
   0.001666544217       101325.0009
   0.001916976631        101325.004
   0.002167409044       101325.0141
   0.002417841458       101325.0419
   0.002668273871         101325.11
   0.002918706284       101325.2602
   0.003169138698       101325.5632
   0.003419571111       101326.1289
   0.003670003524       101327.1133
   0.003920435938         101328.72
   0.004170868351       101331.1907
   0.004421300765       101334.7805
   0.004671733178       101339.7162
   0.004922165591        101346.138
   0.005172598005       101354.0289
   0.005423030418       101363.1438
   0.005673462831       101372.9562
   0.005923895245       101382.6434
   0.006174327658       101391.1369
   0.006424760072       101397.2531
   0.006675192485       101399.9012
   0.006925624898       101398.3364
   0.007176057312        101392.395
   0.007426489725       101382.7579
   0.007676922139       101370.6848
   0.007927354552       101358.0017
   0.008177786965       101346.7815
   0.008428219379       101338.9415
   0.008678651792       101335.8939
   0.008929084205       101338.2807
   0.009179516619       101346.1208
   0.009429949032       101358.7742
   0.009680381446       101374.9567
   0.009930813859       101392.9349
    0.01018124627       101410.7311
    0.01043167869       101426.2533
     0.0106821111       101437.4343
    0.01093254351       101442.4882
    0.01118297593       101440.2776
    0.01143340834       101430.7268
    0.01168384075       101415.0125
    0.01193427317       101395.2432
    0.01218470558       101374.2163
    0.01243513799        101355.037
    0.01268557041       101340.6959
    0.01293600282       101333.5542
    0.01318643523       101334.9959
    0.01343686765       101345.0563
    0.01368730006       101362.3712
    0.01393773247       101384.4305
    0.01418816489       101408.2205
     0.0144385973       101430.8071
    0.01468902971       101449.8736
    0.01493946213       101464.0477
    0.01518989454       101473.0485
    0.01544032695       101477.6247
    0.01569075937       101479.0995
    0.01594119178         101478.94
    0.01619162419       101478.2713
    0.01644205661        101477.614
    0.01669248902       101476.8868
    0.01694292143       101475.5553
    0.01719335385       101472.8552
    0.01744378626       101468.1182
    0.01769421867       101461.0018
    0.01794465109       101451.6903
     0.0181950835       101440.9855
    0.01844551591       101430.2072
    0.01869594833       101420.9405
    0.01894638074       101414.6968
    0.01919681315        101412.589
    0.01944724557       101415.0844
    0.01969767798       101421.8484
    0.01994811039        101431.845
    0.02019854281       101443.5258
    0.02044897522       101455.1721
    0.02069940763       101465.4332
    0.02094984005       101473.5307
    0.02120027246       101479.3596
    0.02145070487       101483.3864
    0.02170113729       101486.4263
     0.0219515697        101489.375
    0.02220200211       101492.9314
    0.02245243453       101497.1541
    0.02270286694       101501.4339
    0.02295329935       101504.7455
    0.02320373177       101505.9464
    0.02345416418       101504.1558
    0.02370459659        101499.062
    0.02395502901       101491.0713
    0.02420546142       101481.2514
    0.02445589384       101471.1939
    0.02470632625       101462.6668
    0.02495675866       101457.3607
    0.02520719108        101456.415
    0.02545762349       101460.2701
     0.0257080559       101468.6637
    0.02595848832       101480.7457
    0.02620892073       101495.2825
    0.02645935314       101510.8203
    0.02670978556       101525.8432
    0.02696021797        101538.956
    0.02721065038        101549.076
     0.0274610828       101555.5144
    0.02771151521       101557.9794
    0.02796194762       101556.4616
    0.02821238004       101551.1807
    0.02846281245       101542.4429
    0.02871324486       101530.6465
    0.02896367728        101516.355
    0.02921410969       101500.3447
     0.0294645421       101483.6291
    0.02971497452        101467.395
    0.02996540693       101452.9377
    0.03021583934       101441.5638
    0.03046627176       101434.4653
    0.03071670417       101432.6352
    0.03096713658       101436.7841
      0.031217569       101447.1848
    0.03146800141       101463.6494
    0.03171843382       101485.3918
    0.03196886624       101510.9987
    0.03221929865       101538.5399
    0.03246973106       101565.8029
    0.03272016348       101590.5287
    0.03297059589       101610.6499
     0.0332210283       101624.5067
    0.03347146072       101631.0722
    0.03372189313       101630.1686
    0.03397232554         101622.47
    0.03422275796       101609.4873
    0.03447319037        101593.287
    0.03472362278       101576.0407
     0.0349740552       101559.6018
    0.03522448761       101545.3172
    0.03547492002       101533.9981
    0.03572535244       101525.9221
    0.03597578485       101520.8356
    0.03622621726       101518.0804
    0.03647664968       101516.6854
    0.03672708209       101515.6949
     0.0369775145       101514.4978
    0.03722794692       101512.9972
    0.03747837933       101511.5847
    0.03772881174       101510.9522
    0.03797924416       101511.8424
    0.03822967657       101514.8494
    0.03848010898       101520.3092
     0.0387305414       101528.2507
    0.03898097381        101538.372
    0.03923140622       101550.0671
    0.03948183864       101562.5415
    0.03973227105       101574.9798
    0.03998270346       101586.6661
    0.04023313588        101597.029
    0.04048356829        101605.601
     0.0407340007       101611.9587
    0.04098443312       101615.6951
    0.04123486553       101616.4287
    0.04148529795       101613.8637
    0.04173573036        101607.915
    0.04198616277       101598.8744
    0.04223659519       101587.4348
     0.0424870276       101574.7036
    0.04273746001       101562.1182
    0.04298789243       101551.2565
    0.04323832484       101543.6196
    0.04348875725       101540.4264
    0.04373918967       101542.4314
    0.04398962208       101549.7878
    0.04424005449       101561.9675
    0.04449048691       101577.8062
    0.04474091932       101595.6474
    0.04499135173        101613.587
    0.04524178415       101629.7448
    0.04549221656       101642.5179
    0.04574264897       101650.7706
    0.04599308139       101653.9448
     0.0462435138       101652.1076
    0.04649394621       101645.8399
    0.04674437863        101636.124
    0.04699481104       101624.1722
    0.04724524345       101611.2507
    0.04749567587       101598.4895
    0.04774610828       101586.9038
    0.04799654069       101577.3663
    0.04824697311       101570.5004
    0.04849740552       101566.6281
    0.04874783793       101565.8311
    0.04899827035       101567.9366
    0.04924870276       101572.6987
    0.04949913517       101579.8696
    0.04974956759       101589.1561
             0.05       101600.2111
          0.05025       101612.6766
           0.0505       101626.2637
          0.05075       101640.6007
            0.051       101655.1609
          0.05125        101669.236
           0.0515       101681.9711
          0.05175       101692.4211
            0.052       101699.6398
          0.05225       101702.8161
           0.0525       101701.4235
          0.05275       101695.3394
            0.053       101684.8987
          0.05325       101670.8558
           0.0535       101654.3545
          0.05375       101636.8142
            0.054       101619.7806
          0.05425       101604.7649
           0.0545       101593.0929
          0.05475       101585.7818
            0.055       101583.4941
          0.05525         101586.43
           0.0555         101594.37
          0.05575       101606.7634
            0.056       101622.7722
          0.05625       101641.3113
           0.0565       101661.1282
          0.05675       101680.9165
            0.057       101699.4434
          0.05725       101715.6643
           0.0575       101728.7941
          0.05775       101738.3252
            0.058       101744.0139
          0.05825       101745.8685
           0.0585        101744.135
          0.05875       101739.2959
            0.059       101732.0219
          0.05925       101723.1273
           0.0595       101713.5004
          0.05975       101704.0401
             0.06       101695.5807
          0.06025       101688.8075
           0.0605       101684.1826
          0.06075       101681.9096
            0.061       101681.9286
          0.06125       101683.9178
           0.0615       101687.3937
          0.06175       101691.8192
            0.062       101696.7237
          0.06225       101701.7895
           0.0625       101706.8743
          0.06275       101711.9741
            0.063       101717.1587
          0.06325       101722.5039
           0.0635       101728.0354
          0.06375       101733.7031
            0.064       101739.3753
          0.06425       101744.8459
           0.0645       101749.8611
          0.06475       101754.1577
            0.065       101757.5057
          0.06525       101759.7504
           0.0655        101760.842
          0.06575       101760.8458
            0.066       101759.9436
          0.06625       101758.4383
           0.0665       101756.7631
          0.06675       101755.4846
            0.067       101755.2761
          0.06725         101756.84
    0.06749810606        101760.747
    0.06774433253       101767.3186
    0.06798869365       101776.5389
    0.06823305476       101788.1109
    0.06847555053        101801.231
    0.06871437212       101814.8247
    0.06895138445       101827.9551
    0.06918660123        101839.651
    0.06942003607       101849.1171
    0.06965170247       101855.8086
    0.06988161381       101859.4629
     0.0701097834       101860.0867
    0.07033622444       101857.9061
    0.07056095001       101853.3005
    0.07078397312       101846.7476
    0.07100530665       101838.7955
    0.07122496342       101830.0525
    0.07144462019       101821.1103
    0.07166260019       101812.7197
    0.07187891622       101805.5232
    0.07209358098       101800.0634
    0.07230824574       101796.7272
    0.07252125923       101795.8165
    0.07273427273       101797.4465
    0.07294563496       101801.5701
    0.07315535872       101807.9787
    0.07336508248       101816.4116
    0.07357316777       101826.4083
     0.0737796274       101837.5291
    0.07398608702       101849.4532
    0.07419092098       101861.7272
    0.07439414208       101874.0465
    0.07459736317        101886.261
     0.0747989714       101898.0474
    0.07499897956       101909.1802
    0.07519898773       101919.5059
    0.07539739583        101928.699
    0.07559580392       101936.6025
    0.07579261196       101942.9472
    0.07598783283       101947.5822
     0.0761830537       101950.4188
    0.07637668741       101951.3864
    0.07657032112       101950.5359
    0.07676236767       101948.0063
    0.07695441422       101943.9872
     0.0771448736       101938.7742
    0.07733375894       101932.6727
    0.07752264429       101925.9355
    0.07770995558       101918.9298
    0.07789726688       101911.9251
    0.07808300413       101905.3183
    0.07826874139       101899.4017
     0.0784529046       101894.5691
    0.07863706781        101891.112
    0.07881965697         101889.36
    0.07900224613       101889.5564
    0.07918326125       101891.8835
    0.07936427637       101896.4526
    0.07954371745       101903.2096
    0.07972315852       101912.0715
    0.07990102555       101922.6945
    0.08007889258       101934.7933
    0.08025518557       101947.8111
    0.08043147856       101961.3731
     0.0806061975       101974.8763
    0.08078091644       101987.9984
    0.08095406134       102000.2543
    0.08112720623       102011.4713
    0.08129877708       102021.3507
     0.0814687882       102029.8003
    0.08163879932       102036.8522
     0.0818072507       102042.4464
    0.08197570208       102046.6796
    0.08214259373       102049.5898
    0.08230948538       102051.2997
    0.08247481729       102051.9004
    0.08263860405       102051.5253
     0.0828023908       102050.3048
     0.0829646324       102048.4028
    0.08312687399       102045.9692
    0.08328911559       102043.1825
    0.08344979717       102040.2637
    0.08361047875       102037.3787
    0.08376960032       102034.7354
    0.08392872188       102032.4637
    0.08408784345       102030.6937
    0.08424538955       102029.5273
    0.08440293566        102029.008
    0.08456048176       102029.1851
    0.08471802786       102030.0983
    0.08487396636       102031.7629
    0.08502990485       102034.2102
    0.08518584334       102037.4508
    0.08534178183       102041.4708
    0.08549607886       102046.1784
     0.0856503759        102051.547
    0.08580303147       102057.4154
    0.08595568705       102063.7029
    0.08610834262       102070.2361
     0.0862609982       102076.8188
    0.08641197624       102083.1793
    0.08656295428       102089.1982
    0.08671393232       102094.7009
    0.08686321398       102099.4979
    0.08701249564       102103.5688
     0.0871617773       102106.8874
    0.08730934308       102109.4585
    0.08745690886        102111.402
    0.08760447464       102112.8386
    0.08775030435       102113.9133
    0.08789613406       102114.8147
    0.08804196377       102115.7027
    0.08818603649       102116.6855
    0.08833010922       102117.8383
    0.08847418194       102119.1684
    0.08861825467        102120.632
    0.08876052649       102122.1292
     0.0889027983       102123.5793
    0.08904507012       102124.8841
    0.08918734194       102125.9661
    0.08932776607       102126.7764
     0.0894681902       102127.3396
    0.08960861433       102127.7152
    0.08974903846       102128.0051
    0.08988756497       102128.3344
    0.09002609147       102128.8478
    0.09016461798       102129.6894
    0.09030314449       102130.9962
    0.09043971992       102132.8569
    0.09057629535       102135.3814
    0.09071287078       102138.6423
    0.09084944621        102142.691
    0.09098602164       102147.5668
    0.09112055863          102153.2
    0.09125509562       102159.6614
    0.09138963261       102166.9362
     0.0915241696       102174.9889
    0.09165870659       102183.7595
    0.09179110807       102193.0098
    0.09192350955       102202.7673
    0.09205591104       102212.8955
    0.09218831252       102223.2205
      0.092320714       102233.5282
    0.09245311549       102243.5668
    0.09258323418          102252.9
    0.09271335288       102261.4209
    0.09284347158       102268.8448
    0.09297359028       102274.9057
    0.09310370898        102279.379
    0.09323141807       102282.0727
    0.09335912716       102283.0143
    0.09348683626       102282.2286
    0.09361454535       102279.8431
    0.09374225444       102276.0859
    0.09386996354       102271.2756
    0.09399767263        102265.802
    0.09412272112       102260.2109
     0.0942477696       102254.8015
    0.09437281809       102249.9478
    0.09449786658        102245.955
    0.09462291506       102243.0326
    0.09474796355       102241.2778
    0.09487010393       102240.6753
    0.09499224432       102241.0592
     0.0951143847       102242.2423
    0.09523652508       102243.9901
    0.09535866546         102246.05
    0.09548080585       102248.1815
    0.09560294623       102250.1823
    0.09572508661       102251.9123
    0.09584722699       102253.3061
    0.09596587765       102254.3533
    0.09608452831       102255.1833
    0.09620317897       102255.9377
    0.09632182962       102256.7949
    0.09644048028       102257.9494
    0.09655913094       102259.5916
    0.09667778159       102261.8886
    0.09679643225       102264.9637
    0.09691508291       102268.8764
    0.09703373357       102273.6055
    0.09715238422       102279.0403
    0.09727103488       102284.9833
    0.09738968554       102291.1676
     0.0975083362       102297.2879
    0.09762698685       102303.0382
    0.09774563751       102308.1509
    0.09785835564       102312.2399
    0.09797107376       102315.4958
    0.09808379188       102317.9365
    0.09819651001       102319.6806
    0.09830922813       102320.9423
    0.09842194626       102322.0013
    0.09853466438       102323.1642
    0.09864738251       102324.7242
    0.09876010063       102326.9192
    0.09887281876       102329.9175
    0.09898553688       102333.7774
      0.099098255       102338.4382
    0.09921097313       102343.7329
    0.09932369125       102349.4097
    0.09943640938       102355.1576
     0.0995491275       102360.6381
    0.09966184563       102365.5221
    0.09977456375       102369.5276
    0.09988728188       102372.4498
              0.1       102374.1803
     0.1001111111       102374.7137
     0.1002219753       102374.1738
     0.1003325931       102372.7364
     0.1004429652       102370.6361
     0.1005530919       102368.1415
     0.1006632186       102365.5227
     0.1007731001       102363.0464
     0.1008827369       102360.9403
     0.1009918863       102359.3894
     0.1011007933       102358.5208
     0.1012094582       102358.4182
     0.1013178816       102359.1204
     0.1014260641       102360.6246
     0.1015337668       102362.8856
     0.1016412307       102365.8354
     0.1017484564       102369.3787
     0.1018554443       102373.4046
      0.101962195       102377.7962
      0.102068709       102382.4422
     0.1021749868       102387.2473
     0.1022810289       102392.1379
      0.102386836       102397.0608
     0.1024924084       102401.9818
     0.1025977467        102406.878
     0.1027030851       102411.7475
     0.1028081893       102416.5729
       0.10291306        102421.346
     0.1030176977         102426.05
     0.1031221028       102430.6532
     0.1032262759        102435.107
     0.1033302175       102439.3445
     0.1034339281       102443.2796
     0.1035374083       102446.8109
     0.1036408884        102449.839
     0.1037441381       102452.2618
     0.1038471579       102454.0108
     0.1039499482       102455.0514
     0.1040525095       102455.3859
     0.1041548425       102455.0583
     0.1042569475       102454.1609
     0.1043588251       102452.8379
     0.1044607027       102451.2715
     0.1045623529       102449.6811
     0.1046635504       102448.2974
     0.1047647478       102447.3326
     0.1048657194       102446.9788
     0.1049664655       102447.3761
     0.1050669868       102448.5992
     0.1051672837       102450.6471
     0.1052673567       102453.4418
     0.1053672064       102456.8358
     0.1054668332       102460.6281
     0.1055662375        102464.587
       0.10566542       102468.4763
     0.1057643812       102472.0822
     0.1058631214       102475.2366
     0.1059616412       102477.8356
     0.1060599411       102479.8504
     0.1061580216       102481.3281
     0.1062558832       102482.3829
     0.1063535263       102483.1785
     0.1064509514        102483.906
     0.1065481591       102484.7594
     0.1066451499       102485.9142
     0.1067421406       102487.5143
     0.1068389143       102489.6503
     0.1069354715       102492.3609
     0.1070318128       102495.6304
      0.107128154       102499.4013
     0.1072242792       102503.5586
     0.1073201889       102507.9639
     0.1074160986       102512.4722
     0.1075117928       102516.9176
     0.1076072719       102521.1592
      0.107702751        102525.094
     0.1077980151       102528.6403
     0.1078930646       102531.7702
        0.1079879       102534.5015
     0.1080825219       102536.8961
     0.1081769306       102539.0391
     0.1082711267       102541.0233
     0.1083651106       102542.9389
     0.1084588829       102544.8621
      0.108552444       102546.8432
     0.1086457943       102548.8972
     0.1087389345       102551.0016
     0.1088318648       102553.1013
     0.1089247951       102555.1221
     0.1090175157       102556.9686
     0.1091100269       102558.5519
     0.1092023293       102559.7981
     0.1092946318       102560.6614
     0.1093867253        102561.127
     0.1094786106       102561.2224
     0.1095704958       102561.0118
     0.1096621727       102560.5903
     0.1097536417       102560.0722
     0.1098449033       102559.5766
     0.1099361649        102559.212
      0.110027219       102559.0665
     0.1101180663       102559.1955
     0.1102089135       102559.6188
     0.1102995538       102560.3164
     0.1103899876       102561.2313
     0.1104804214       102562.2756
     0.1105706488       102563.3272
     0.1106606701       102564.2494
     0.1107506915       102564.8971
     0.1108405068       102565.1246
     0.1109303222       102564.8058
     0.1110199315       102563.8475
     0.1111093353       102562.2029
     0.1111987392       102559.8723
     0.1112879375       102556.9218
     0.1113769307       102553.4692
      0.111465924       102549.6703
     0.1115547122       102545.7344
     0.1116432958       102541.8852
     0.1117318794       102538.3441
     0.1118202584         102535.34
     0.1119084333        102533.066
     0.1119966083       102531.6733
     0.1120845791       102531.2723
     0.1121725499       102531.9129
     0.1122605207       102533.5915
     0.1123482869        102536.241
     0.1124360532       102539.7567
     0.1125236148       102543.9847
     0.1126111765       102548.7696
     0.1126985335       102553.9352
     0.1127858906        102559.346
     0.1128732477       102564.8893
     0.1129603997        102570.483
     0.1130475517       102576.1185
     0.1131344986       102581.8044
      0.113221241       102587.5962
     0.1133079833       102593.5822
     0.1133945211       102599.8257
     0.1134808548       102606.3898
     0.1135671884       102613.3267
      0.113653318       102620.6198
     0.1137394476       102628.2433
     0.1138253731       102636.0929
     0.1139110949        102644.042
     0.1139968168       102651.9518
     0.1140823351       102659.6287
     0.1141678533       102666.9134
     0.1142531679       102673.6249
     0.1143382794       102679.6279
      0.114423391       102684.8334
     0.1145082993       102689.1631
     0.1145932077       102692.5995
     0.1146779129       102695.1419
     0.1147624155       102696.8321
      0.114846716       102697.7377
     0.1149310164       102697.9458
     0.1150151147       102697.5569
      0.115099213       102696.6851
     0.1151831091       102695.4591
     0.1152670052       102694.0118
     0.1153506992       102692.4867
     0.1154341915       102691.0205
     0.1155176838       102689.7355
     0.1156009744         102688.74
     0.1156840638         102688.11
     0.1157671533       102687.8857
     0.1158500415       102688.0685
     0.1159327291       102688.6144
     0.1160152164       102689.4358
     0.1160977037       102690.4067
     0.1161799909       102691.3604
      0.116262278       102692.1051
     0.1163443649       102692.4267
     0.1164262521       102692.1098
     0.1165081393       102690.9558
     0.1165898268        102688.795
     0.1166715142       102685.5094
     0.1167532017       102681.0602
     0.1168346889       102675.5127
     0.1169161762       102668.9975
     0.1169974632       102661.7581
     0.1170787503       102654.0766
     0.1171598371       102646.3247
     0.1172409239       102638.8671
     0.1173218105       102632.1056
     0.1174026971        102626.378
     0.1174833835       102621.9955
     0.1175640699       102619.1655
     0.1176445561       102618.0256
     0.1177250423       102618.6279
     0.1178055284       102620.9389
     0.1178858139       102624.8159
     0.1179660994        102630.046
     0.1180461841       102636.3262
     0.1181262689       102643.3356
     0.1182061529       102650.6977
      0.118286037       102658.0693
      0.118365921       102665.1082
     0.1184456038       102671.4994
     0.1185252866       102677.0305
     0.1186047682       102681.5506
     0.1186842498       102685.0364
     0.1187635302       102687.5429
     0.1188428106       102689.2213
     0.1189218898       102690.2694
     0.1190009689       102690.9261
     0.1190798469       102691.4373
     0.1191587248       102692.0475
     0.1192374015       102692.9773
     0.1193160782       102694.4166
     0.1193945537       102696.4975
     0.1194730292       102699.2996
     0.1195513035       102702.8259
     0.1196295778       102707.0403
     0.1197076509       102711.8469
     0.1197857239       102717.1499
     0.1198635958        102722.818
     0.1199414676       102728.7485
     0.1200191383       102734.8153
     0.1200968089       102740.9328
     0.1201742783       102746.9961
     0.1202517477       102752.9447
     0.1203290159       102758.7006
     0.1204062841       102764.2296
      0.120483351        102769.481
      0.120560418       102774.4449
     0.1206372838       102779.0929
     0.1207141495       102783.4282
     0.1207910153       102787.4393
     0.1208676793       102791.0968
     0.1209443433       102794.3773
     0.1210210073       102797.2317
      0.121097469       102799.5945
     0.1211739307       102801.4072
     0.1212503924       102802.6014
     0.1213266513       102803.1126
     0.1214029102         102802.89
     0.1214791692       102801.8943
     0.1215552247        102800.114
     0.1216312803       102797.5579
     0.1217073358       102794.2688
     0.1217831874       102790.3356
     0.1218590391       102785.8619
     0.1219348907       102780.9899
     0.1220105379       102775.9012
     0.1220861851        102770.767
     0.1221616279       102765.7921
     0.1222370706        102761.161
     0.1223123089       102757.0528
     0.1223875472       102753.6064
     0.1224627855       102750.9461
     0.1225378188       102749.1623
     0.1226128521       102748.2875
     0.1226876803       102748.3104
     0.1227625086       102749.1623
     0.1228373369       102750.7238
     0.1229121651       102752.8248
     0.1229867873       102755.2481
     0.1230614094       102757.7646
     0.1231360315       102760.1326
     0.1232106537       102762.1227
     0.1232852758       102763.5361
     0.1233596901       102764.2185
     0.1234341044       102764.0766
     0.1235085186       102763.0729
     0.1235829329       102761.2312
     0.1236571382       102758.6397
     0.1237313434       102755.4209
     0.1238055486       102751.7367
     0.1238797539       102747.7715
     0.1239537489       102743.7325
      0.124027744       102739.8046
      0.124101739       102736.1748
      0.124175734       102733.0183
     0.1242495176       102730.4904
     0.1243233013       102728.6954
     0.1243970849       102727.7122
     0.1244708685       102727.5865
     0.1245444395       102728.3341
     0.1246180105       102729.9394
     0.1246915814       102732.3683
     0.1247651524       102735.5632
     0.1248387234       102739.4514
     0.1249120799       102743.9363
     0.1249854364       102748.9394
     0.1250587929       102754.3665
     0.1251321494       102760.1189
     0.1252052901       102766.0783
     0.1252784308       102772.1619
     0.1253515716       102778.2744
     0.1254247123       102784.3266
      0.125497636       102790.2227
     0.1255705597        102795.917
     0.1256434834       102801.3669
     0.1257161894       102806.5398
     0.1257888955       102811.4569
     0.1258613838       102816.1229
     0.1259338721       102820.5722
     0.1260063605       102824.8152
     0.1260786305       102828.8385
     0.1261509005       102832.6442
     0.1262229521       102836.2079
     0.1262950038       102839.5288
     0.1263670555       102842.5981
     0.1264388881       102845.4022
     0.1265107208       102847.9478
     0.1265825534       102850.2353
     0.1266541664       102852.2646
     0.1267257794       102854.0561
     0.1267973924       102855.6301
     0.1268690054       102857.0114
     0.1269403973        102858.221
     0.1270117893       102859.2826
     0.1270831813       102860.2076
     0.1271543515       102860.9973
     0.1272255217       102861.6529
      0.127296692         102862.17
     0.1273676398       102862.5451
     0.1274385877       102862.7886
     0.1275095355       102862.9154
     0.1275802602       102862.9418
      0.127650985       102862.8793
     0.1277217097       102862.7301
     0.1277924344        102862.487
     0.1278631592       102862.1389
     0.1279336586        102861.671
     0.1280041581       102861.0567
     0.1280746576       102860.2561
     0.1281451571       102859.2352
     0.1282156566       102857.9412
     0.1282861561       102856.3095