# Probe 0 (2.4 2.295 1.5)
#           Probe                 0
#            Time
    1.1999904e-06            293.15
  2.639965056e-06            293.15
  4.367944597e-06            293.15
  6.441505713e-06            293.15
   8.92973777e-06            293.15
  1.191552707e-05            293.15
  1.549838863e-05            293.15
  1.979776087e-05            293.15
  2.495674128e-05            293.15
  3.114713435e-05            293.15
  3.857523794e-05            293.15
  4.748896225e-05            293.15
  5.818543142e-05            293.15
  7.102064463e-05            293.15
  8.642131685e-05            293.15
  0.0001049009832            293.15
  0.0001270765827            293.15
  0.0001536896689            293.15
  0.0001856219625            293.15
  0.0002239407148            293.15
  0.0002699019884            293.15
  0.0003250351347            293.15
  0.0003911802278            293.15
  0.0004705543394            293.15
  0.0005658032734            293.15
  0.0006799700095            293.15
  0.0008169700928            293.15
  0.0009814618316            293.15
   0.001179117227            293.15
   0.001416111804       293.1500002
   0.001666544217       293.1500009
   0.001916976631       293.1500039
   0.002167409044       293.1500131
   0.002417841458        293.150038
   0.002668273871       293.1500977
   0.002918706284       293.1502271
   0.003169138698       293.1504849
   0.003419571111        293.150961
   0.003670003524       293.1517822
   0.003920435938       293.1531131
   0.004170868351       293.1551472
   0.004421300765       293.1580876
   0.004671733178       293.1621124
   0.004922165591       293.1673289
   0.005172598005       293.1737171
   0.005423030418       293.1810734
   0.005673462831       293.1889687
   0.005923895245       293.1967388
   0.006174327658        293.203525
   0.006424760072       293.2083798
   0.006675192485       293.2104343
   0.006925624898       293.2090998
   0.007176057312        293.204255
   0.007426489725       293.1964098
   0.007676922139       293.1865983
   0.007927354552       293.1763061
   0.008177786965       293.1672075
   0.008428219379       293.1608448
   0.008678651792       293.1583633
   0.008929084205        293.160315
   0.009179516619       293.1667245
   0.009429949032       293.1770686
   0.009680381446       293.1903028
   0.009930813859       293.2050156
    0.01018124627       293.2195907
    0.01043167869       293.2323133
     0.0106821111       293.2414874
    0.01093254351       293.2456473
    0.01118297593       293.2438618
    0.01143340834       293.2360406
    0.01168384075       293.2230794
    0.01193427317       293.2067156
    0.01218470558       293.1892739
    0.01243513799       293.1733331
    0.01268557041       293.1613777
    0.01293600282       293.1553798
    0.01318643523       293.1564905
    0.01343686765       293.1647403
    0.01368730006       293.1790127
    0.01393773247       293.1972497
    0.01418816489       293.2169652
     0.0144385973       293.2357339
    0.01468902971       293.2516357
    0.01493946213       293.2635313
    0.01518989454       293.2711789
    0.01544032695       293.2751609
    0.01569075937        293.276543
    0.01594119178       293.2765275
    0.01619162419       293.2760484
    0.01644205661       293.2755484
    0.01669248902       293.2749739
    0.01694292143       293.2738946
    0.01719335385       293.2716905
    0.01744378626       293.2678114
    0.01769421867       293.2619717
    0.01794465109       293.2543213
     0.0181950835       293.2455188
    0.01844551591       293.2366514
    0.01869594833       293.2290272
    0.01894638074       293.2238994
    0.01919681315       293.2221963
    0.01944724557       293.2243179
    0.01969767798       293.2300095
    0.01994811039       293.2384197
    0.02019854281       293.2482625
    0.02044897522       293.2581128
    0.02069940763        293.266831
    0.02094984005       293.2737441
    0.02120027246       293.2787422
    0.02145070487       293.2822004
    0.02170113729       293.2847981
     0.0219515697       293.2872929
    0.02220200211       293.2902637
    0.02245243453       293.2937659
    0.02270286694       293.2973164
    0.02295329935       293.3000821
    0.02320373177       293.3011313
    0.02345416418       293.2997466
    0.02370459659        293.295675
    0.02395502901       293.2892458
    0.02420546142       293.2813285
    0.02445589384       293.2732162
    0.02470632625        293.266362
    0.02495675866       293.2621547
    0.02520719108       293.2615377
    0.02545762349       293.2648761
     0.0257080559       293.2719522
    0.02595848832       293.2820711
    0.02620892073       293.2942159
    0.02645935314       293.3071834
    0.02670978556       293.3197175
    0.02696021797       293.3306652
    0.02721065038       293.3391294
     0.0274610828       293.3445368
    0.02771151521       293.3466415
    0.02796194762       293.3454449
    0.02821238004       293.3411418
    0.02846281245       293.3340025
    0.02871324486       293.3243725
    0.02896367728       293.3127266
    0.02921410969       293.2997079
     0.0294645421       293.2861429
    0.02971497452       293.2729944
    0.02996540693       293.2613139
    0.03021583934       293.2521628
    0.03046627176       293.2465095
    0.03071670417       293.2451635
    0.03096713658       293.2487028
      0.031217569       293.2573608
    0.03146800141        293.270994
    0.03171843382       293.2889673
    0.03196886624       293.3101274
    0.03221929865       293.3329009
    0.03246973106       293.3554797
    0.03272016348        293.376012
    0.03297059589        293.392799
     0.0332210283       293.4044758
    0.03347146072        293.410197
    0.03372189313       293.4097957
    0.03397232554       293.4038057
    0.03422275796       293.3934404
    0.03447319037       293.3803742
    0.03472362278       293.3663823
     0.0349740552       293.3529969
    0.03522448761       293.3413359
    0.03547492002       293.3320751
    0.03572535244       293.3254524
    0.03597578485        293.321275
    0.03622621726       293.3190115
    0.03647664968       293.3178785
    0.03672708209         293.31711
     0.0369775145       293.3162194
    0.03722794692       293.3151331
    0.03747837933       293.3141716
    0.03772881174       293.3138989
    0.03797924416       293.3149192
    0.03822967657       293.3177123
    0.03848010898       293.3225425
     0.0387305414       293.3294183
    0.03898097381        293.338077
    0.03923140622       293.3480112
    0.03948183864       293.3585627
    0.03973227105       293.3690579
    0.03998270346       293.3789078
    0.04023313588       293.3876426
    0.04048356829        293.394881
     0.0407340007       293.4002805
    0.04098443312       293.4035159
    0.04123486553       293.4042846
    0.04148529795        293.402355
    0.04173573036       293.3976676
    0.04198616277       293.3904605
    0.04223659519       293.3812958
     0.0424870276       293.3710749
    0.04273746001        293.360971
    0.04298789243       293.3522751
    0.04323832484       293.3462186
    0.04348875725       293.3438038
    0.04373918967       293.3456533
    0.04398962208       293.3518961
    0.04424005449        293.362104
    0.04449048691       293.3753277
    0.04474091932        293.390213
    0.04499135173       293.4051995
    0.04524178415        293.418748
    0.04549221656       293.4295452
    0.04574264897       293.4366587
    0.04599308139       293.4396299
     0.0462435138       293.4385007
    0.04649394621       293.4337345
    0.04674437863       293.4261267
    0.04699481104       293.4166669
    0.04724524345       293.4063863
    0.04749567587       293.3962095
    0.04774610828       293.3869697
    0.04799654069       293.3793846
    0.04824697311       293.3739713
    0.04849740552       293.3710048
    0.04874783793       293.3705554
    0.04899827035       293.3724876
    0.04924870276       293.3766106
    0.04949913517       293.3827283
    0.04974956759          293.3906
             0.05        293.399938
          0.05025       293.4104461
           0.0505       293.4218854
          0.05075       293.4339476
            0.051        293.446198
          0.05125       293.4580551
           0.0515       293.4688172
          0.05175       293.4777079
            0.052        293.483949
          0.05225       293.4868727
           0.0525       293.4860449
          0.05275       293.4813615
            0.053       293.4730898
          0.05325       293.4618433
           0.0535       293.4485553
          0.05375       293.4343864
            0.054       293.4206041
          0.05425       293.4084508
           0.0545       293.3990218
          0.05475       293.3931679
            0.055       293.3914437
          0.05525       293.3940229
           0.0555       293.4007359
          0.05575       293.4111407
            0.056       293.4245568
          0.05625       293.4400986
           0.0565        293.456739
          0.05675       293.4734031
            0.057       293.4890724
          0.05725       293.5028782
           0.0575       293.5141619
          0.05775       293.5224921
            0.058       293.5276557
          0.05825       293.5296494
           0.0585       293.5286697
          0.05875       293.5251081
            0.059        293.519515
          0.05925       293.5125617
           0.0595       293.5049824
          0.05975       293.4975204
             0.06       293.4908654
          0.06025       293.4855847
           0.0605       293.4820643
          0.06075       293.4804774
            0.061       293.4807759
          0.06125       293.4826954
           0.0615        293.485838
          0.06175       293.4897641
            0.062       293.4940893
          0.06225       293.4985537
           0.0625        293.503041
          0.06275       293.5075493
            0.063       293.5121384
          0.06325       293.5168726
           0.0635       293.5217744
          0.06375       293.5268012
            0.064       293.5318409
          0.06425       293.5367161
           0.0645       293.5412131
          0.06475       293.5451098
            0.065       293.5482136
          0.06525       293.5503962
           0.0655       293.5516183
          0.06575       293.5519375
            0.066       293.5515081
          0.06625        293.550583
           0.0665         293.54952
          0.06675       293.5487831
            0.067       293.5489209
          0.06725       293.5505043
    0.06749810606       293.5539962
    0.06774433253       293.5596599
    0.06798869365       293.5674862
    0.06823305476       293.5772397
    0.06847555053       293.5882681
    0.06871437212       293.5996976
    0.06895138445       293.6107672
    0.06918660123       293.6206827
    0.06942003607       293.6287906
    0.06965170247       293.6346399
    0.06988161381       293.6380089
     0.0701097834       293.6388958
    0.07033622444       293.6374789
    0.07056095001       293.6340642
    0.07078397312       293.6290404
    0.07100530665       293.6228561
    0.07122496342       293.6160102
    0.07144462019       293.6089895
    0.07166260019       293.6024076
    0.07187891622       293.5967924
    0.07209358098        293.592591
    0.07230824574        293.590125
    0.07252125923       293.5896439
    0.07273427273       293.5912474
    0.07294563496       293.5948988
    0.07315535872       293.6004297
    0.07336508248       293.6076307
    0.07357316777       293.6161254
     0.0737796274        293.625555
    0.07398608702       293.6356576
    0.07419092098       293.6460564
    0.07439414208       293.6564914
    0.07459736317       293.6668411
     0.0747989714       293.6768342
    0.07499897956        293.686282
    0.07519898773       293.6950585
    0.07539739583        293.702893
    0.07559580392       293.7096578
    0.07579261196       293.7151294
    0.07598783283       293.7191865
     0.0761830537       293.7217587
    0.07637668741        293.722788
    0.07657032112       293.7223179
    0.07676236767       293.7204607
    0.07695441422       293.7173724
     0.0771448736       293.7132935
    0.07733375894        293.708476
    0.07752264429       293.7031306
    0.07770995558       293.6975598
    0.07789726688       293.6919885
    0.07808300413       293.6867456
    0.07826874139       293.6820751
     0.0784529046       293.6783024
    0.07863706781       293.6756705
    0.07881965697       293.6744496
    0.07900224613       293.6748419
    0.07918326125       293.6769947
    0.07936427637       293.6809989
    0.07954371745       293.6868062
    0.07972315852       293.6943496
    0.07990102555       293.7033469
    0.08007889258       293.7135663
    0.08025518557       293.7245492
    0.08043147856       293.7359898
     0.0806061975       293.7473898
    0.08078091644       293.7584854
    0.08095406134        293.768873
    0.08112720623       293.7784101
    0.08129877708       293.7868457
     0.0814687882       293.7940995
    0.08163879932       293.8001969
     0.0818072507       293.8050845
    0.08197570208       293.8088437
    0.08214259373       293.8115036
    0.08230948538       293.8131686
    0.08247481729       293.8139129
    0.08263860405       293.8138474
     0.0828023908       293.8130823
     0.0829646324       293.8117525
    0.08312687399       293.8099813
    0.08328911559       293.8079137
    0.08344979717       293.8057288
    0.08361047875        293.803563
    0.08376960032       293.8015846
    0.08392872188       293.7999019
    0.08408784345       293.7986241
    0.08424538955       293.7978348
    0.08440293566       293.7975744
    0.08456048176       293.7978878
    0.08471802786       293.7988098
    0.08487396636       293.8003553
    0.08502990485       293.8025541
    0.08518584334       293.8054174
    0.08534178183       293.8089338
    0.08549607886       293.8130244
     0.0856503759       293.8176657
    0.08580303147       293.8227194
    0.08595568705       293.8281185
    0.08610834262       293.8337187
     0.0862609982       293.8393562
    0.08641197624       293.8448019
    0.08656295428       293.8499574
    0.08671393232       293.8546782
    0.08686321398        293.858807
    0.08701249564         293.86233
     0.0871617773        293.865227
    0.08730934308       293.8675021
    0.08745690886       293.8692572
    0.08760447464       293.8705929
    0.08775030435       293.8716272
    0.08789613406       293.8725152
    0.08804196377       293.8733876
    0.08818603649       293.8743308
    0.08833010922       293.8754077
    0.08847418194       293.8766247
    0.08861825467        293.877947
    0.08876052649       293.8792931
     0.0889027983       293.8805997
    0.08904507012       293.8817877
    0.08918734194       293.8827945
    0.08932776607       293.8835796
     0.0894681902       293.8841637
    0.08960861433       293.8845953
    0.08974903846       293.8849571
    0.08988756497       293.8853499
    0.09002609147       293.8858941
    0.09016461798        293.886708
    0.09030314449       293.8879049
    0.09043971992        293.889557
    0.09057629535       293.8917564
    0.09071287078       293.8945635
    0.09084944621        293.898014
    0.09098602164       293.9021426
    0.09112055863       293.9068902
    0.09125509562       293.9123155
    0.09138963261       293.9184034
     0.0915241696       293.9251236
    0.09165870659       293.9324271
    0.09179110807       293.9401167
    0.09192350955       293.9482171
    0.09205591104       293.9566171
    0.09218831252       293.9651758
      0.092320714       293.9737197
    0.09245311549       293.9820445
    0.09258323418       293.9897933
    0.09271335288       293.9968814
    0.09284347158        294.003077
    0.09297359028       294.0081629
    0.09310370898       294.0119565
    0.09323141807       294.0142989
    0.09335912716       294.0152148
    0.09348683626       294.0147237
    0.09361454535       294.0129287
    0.09374225444       294.0100141
    0.09386996354       294.0062378
    0.09399767263       294.0019142
    0.09412272112       293.9974828
     0.0942477696       293.9931871
    0.09437281809       293.9893296
    0.09449786658       293.9861578
    0.09462291506       293.9838432
    0.09474796355       293.9824666
    0.09487010393        293.982019
    0.09499224432       293.9823702
     0.0951143847        293.983372
    0.09523652508       293.9848382
    0.09535866546       293.9865661
    0.09548080585       293.9883627
    0.09560294623       293.9900646
    0.09572508661       293.9915587
    0.09584722699       293.9927906
    0.09596587765       293.9937472
    0.09608452831       293.9945349
    0.09620317897       293.9952669
    0.09632182962       293.9960868
    0.09644048028       293.9971517
    0.09655913094       293.9986154
    0.09667778159       294.0006122
    0.09679643225       294.0032417
    0.09691508291       294.0065511
    0.09703373357       294.0105226
    0.09715238422       294.0150655
    0.09727103488       294.0200191
    0.09738968554       294.0251666
     0.0975083362       294.0302601
    0.09762698685       294.0350507
    0.09774563751       294.0393205
    0.09785835564       294.0427456
    0.09797107376       294.0454889
    0.09808379188       294.0475643
    0.09819651001       294.0490669
    0.09830922813       294.0501686
    0.09842194626       294.0510944
    0.09853466438       294.0520916
    0.09864738251       294.0533971
    0.09876010063       294.0552062
    0.09887281876       294.0576561
    0.09898553688       294.0607962
      0.099098255       294.0645807
    0.09921097313       294.0688784
    0.09932369125       294.0734889
    0.09943640938       294.0781633
     0.0995491275       294.0826296
    0.09966184563       294.0866226
    0.09977456375       294.0899134
    0.09988728188       294.0923344
              0.1       294.0937944
     0.1001111111       294.0942845
     0.1002219753       294.0939013
     0.1003325931       294.0927835
     0.1004429652       294.0911181
     0.1005530919       294.0891208
     0.1006632186       294.0870104
     0.1007731001       294.0850043
     0.1008827369       294.0832898
     0.1009918863       294.0820212
     0.1011007933       294.0813061
     0.1012094582        294.081217
     0.1013178816       294.0817887
     0.1014260641       294.0830213
     0.1015337668       294.0848788
     0.1016412307       294.0873052
     0.1017484564       294.0902215
     0.1018554443       294.0935356
      0.101962195       294.0971501
      0.102068709       294.1009723
     0.1021749868       294.1049222
     0.1022810289       294.1089381
      0.102386836       294.1129759
     0.1024924084       294.1170078
     0.1025977467       294.1210159
     0.1027030851       294.1250005
     0.1028081893       294.1289491
       0.10291306        294.132857
     0.1030176977       294.1367124
     0.1031221028       294.1404908
     0.1032262759       294.1441533
     0.1033302175       294.1476453
     0.1034339281        294.150897
     0.1035374083       294.1538255
     0.1036408884       294.1563506
     0.1037441381       294.1583884
     0.1038471579       294.1598812
     0.1039499482       294.1607991
     0.1040525095       294.1611416
     0.1041548425       294.1609436
     0.1042569475       294.1602792
     0.1043588251       294.1592675
     0.1044607027       294.1580528
     0.1045623529       294.1568103
     0.1046635504       294.1557255
     0.1047647478         294.15497
     0.1048657194       294.1546993
     0.1049664655       294.1550272
     0.1050669868       294.1560151
     0.1051672837       294.1576642
     0.1052673567       294.1599137
     0.1053672064       294.1626473
     0.1054668332       294.1657053
     0.1055662375        294.168903
       0.10566542       294.1720514
     0.1057643812       294.1749787
     0.1058631214       294.1775493
     0.1059616412       294.1796783
     0.1060599411       294.1813409
     0.1061580216        294.182573
     0.1062558832       294.1834643
     0.1063535263       294.1841449
     0.1064509514       294.1847672
     0.1065481591       294.1854865
     0.1066451499       294.1864443
     0.1067421406       294.1877566
     0.1068389143       294.1894976
     0.1069354715       294.1916996
     0.1070318128       294.1943511
      0.107128154       294.1974066
     0.1072242792       294.2007733
     0.1073201889       294.2043404
     0.1074160986       294.2079915
     0.1075117928       294.2115932
     0.1076072719       294.2150322
      0.107702751       294.2182258
     0.1077980151        294.221108
     0.1078930646       294.2236566
        0.1079879       294.2258865
     0.1080825219       294.2278466
     0.1081769306       294.2296048
     0.1082711267       294.2312359
     0.1083651106       294.2328123
     0.1084588829       294.2343954
      0.108552444       294.2360246
     0.1086457943       294.2377118
     0.1087389345       294.2394386
     0.1088318648       294.2411605
     0.1089247951       294.2428171
     0.1090175157       294.2443307
     0.1091100269       294.2456283
     0.1092023293       294.2466491
     0.1092946318       294.2473549
     0.1093867253       294.2477321
     0.1094786106       294.2478018
     0.1095704958       294.2476147
     0.1096621727       294.2472469
     0.1097536417       294.2467905
     0.1098449033       294.2463423
     0.1099361649       294.2459911
      0.110027219         294.24581
     0.1101180663       294.2458469
     0.1102089135       294.2461202
     0.1102995538       294.2466166
     0.1103899876       294.2472924
     0.1104804214        294.248078
     0.1105706488       294.2488737
     0.1106606701       294.2495729
     0.1107506915         294.25006
     0.1108405068       294.2502188
     0.1109303222       294.2499479
     0.1110199315       294.2491724
     0.1111093353       294.2478535
     0.1111987392       294.2459906
     0.1112879375       294.2436348
     0.1113769307       294.2408786
      0.111465924        294.237845
     0.1115547122       294.2346997
     0.1116432958       294.2316202
     0.1117318794       294.2287816
     0.1118202584       294.2263662
     0.1119084333       294.2245278
     0.1119966083       294.2233869
     0.1120845791       294.2230317
     0.1121725499        294.223503
     0.1122605207       294.2247988
     0.1123482869       294.2268675
     0.1124360532       294.2296276
     0.1125236148       294.2329589
     0.1126111765         294.23674
     0.1126985335       294.2408332
     0.1127858906        294.245132
     0.1128732477        294.249548
     0.1129603997        294.254016
     0.1130475517       294.2585286
     0.1131344986       294.2630911
      0.113221241       294.2677456
     0.1133079833       294.2725606
     0.1133945211       294.2775842
     0.1134808548       294.2828648
     0.1135671884       294.2884428
      0.113653318       294.2943036
     0.1137394476       294.3004264
     0.1138253731       294.3067278
     0.1139110949       294.3131072
     0.1139968168        294.319455
     0.1140823351       294.3256177
     0.1141678533       294.3314692
     0.1142531679       294.3368655
     0.1143382794       294.3416989
      0.114423391       294.3458977
     0.1145082993       294.3493993
     0.1145932077        294.352189
     0.1146779129       294.3542655
     0.1147624155       294.3556615
      0.114846716       294.3564299
     0.1149310164       294.3566397
     0.1150151147       294.3563701
      0.115099213       294.3557114
     0.1151831091       294.3547654
     0.1152670052       294.3536372
     0.1153506992       294.3524399
     0.1154341915       294.3512818
     0.1155176838       294.3502592
     0.1156009744       294.3494584
     0.1156840638       294.3489396
     0.1157671533       294.3487353
     0.1158500415       294.3488475
     0.1159327291       294.3492421
     0.1160152164       294.3498504
     0.1160977037        294.350573
     0.1161799909       294.3512782
      0.116262278       294.3518143
     0.1163443649        294.352012
     0.1164262521       294.3517015
     0.1165081393       294.3507385
     0.1165898268        294.348987
     0.1166715142       294.3463522
     0.1167532017       294.3428018
     0.1168346889        294.338385
     0.1169161762       294.3332026
     0.1169974632       294.3274448
     0.1170787503       294.3213321
     0.1171598371       294.3151567
     0.1172409239       294.3092048
     0.1173218105       294.3037932
     0.1174026971       294.2991892
     0.1174833835       294.2956416
     0.1175640699        294.293319
     0.1176445561       294.2923372
     0.1177250423       294.2927392
     0.1178055284       294.2945004
     0.1178858139        294.297511
     0.1179660994       294.3016054
     0.1180461841       294.3065473
     0.1181262689       294.3120842
     0.1182061529       294.3179183
      0.118286037       294.3237769
      0.118365921       294.3293882
     0.1184456038        294.334502
     0.1185252866        294.338949
     0.1186047682       294.3426071
     0.1186842498       294.3454537
     0.1187635302       294.3475258
     0.1188428106        294.348937
     0.1189218898       294.3498389
     0.1190009689       294.3504177
     0.1190798469       294.3508674
     0.1191587248       294.3513825
     0.1192374015       294.3521393
     0.1193160782       294.3532895
     0.1193945537       294.3549396
     0.1194730292       294.3571553
     0.1195513035       294.3599427
     0.1196295778       294.3632773
     0.1197076509       294.3670869
     0.1197857239       294.3712977
     0.1198635958       294.3758065
     0.1199414676       294.3805312
     0.1200191383       294.3853703
     0.1200968089       294.3902547
     0.1201742783          294.3951
     0.1202517477       294.3998574
     0.1203290159       294.4044646
     0.1204062841       294.4088944
      0.120483351       294.4131066
      0.120560418       294.4170931
     0.1206372838       294.4208312
     0.1207141495       294.4243225
     0.1207910153        294.427557
     0.1208676793        294.430511
     0.1209443433       294.4331663
     0.1210210073       294.4354846
      0.121097469       294.4374139
     0.1211739307       294.4389078
     0.1212503924       294.4399116
     0.1213266513        294.440373
     0.1214029102       294.4402509
     0.1214791692       294.4395132
     0.1215552247       294.4381494
     0.1216312803       294.4361657
     0.1217073358       294.4335944
     0.1217831874       294.4305047
     0.1218590391        294.426977
     0.1219348907       294.4231229
     0.1220105379       294.4190851
     0.1220861851       294.4149984
     0.1221616279        294.411025
     0.1222370706        294.407331
     0.1223123089       294.4040416
     0.1223875472        294.401262
     0.1224627855       294.3990903
     0.1225378188       294.3975999
     0.1226128521       294.3968191
     0.1226876803       294.3967422
     0.1227625086       294.3973185
     0.1228373369       294.3984574
     0.1229121651       294.4000288
     0.1229867873       294.4018659
     0.1230614094       294.4037913
     0.1231360315       294.4056179
     0.1232106537       294.4071671
     0.1232852758       294.4082832
     0.1233596901       294.4088439
     0.1234341044       294.4087744
     0.1235085186       294.4080424
     0.1235829329       294.4066627
     0.1236571382       294.4047002
     0.1237313434       294.4022466
     0.1238055486       294.3994245
     0.1238797539       294.3963749
     0.1239537489       294.3932575
      0.124027744       294.3902157
      0.124101739       294.3873951
      0.124175734       294.3849319
     0.1242495176       294.3829479
     0.1243233013       294.3815259
     0.1243970849       294.3807297
     0.1244708685       294.3805972
     0.1245444395       294.3811415
     0.1246180105       294.3823529
     0.1246915814       294.3842067
     0.1247651524       294.3866619
     0.1248387234       294.3896647
     0.1249120799       294.3931426
     0.1249854364       294.3970364
     0.1250587929       294.4012746
     0.1251321494       294.4057819
     0.1252052901       294.4104674
     0.1252784308       294.4152676
     0.1253515716       294.4201086
     0.1254247123        294.424921
      0.125497636       294.4296296
     0.1255705597       294.4341989
     0.1256434834       294.4385947
     0.1257161894        294.442788
     0.1257888955       294.4467913
     0.1258613838       294.4506023
     0.1259338721        294.454243
     0.1260063605        294.457718
     0.1260786305       294.4610141
     0.1261509005       294.4641322
     0.1262229521       294.4670513
     0.1262950038       294.4697693
     0.1263670555       294.4722767
     0.1264388881       294.4745608
     0.1265107208       294.4766264
     0.1265825534       294.4784746
     0.1266541664       294.4801071
     0.1267257794       294.4815427
     0.1267973924       294.4827998
     0.1268690054       294.4839006
     0.1269403973        294.484864
     0.1270117893       294.4857115
     0.1270831813        294.486455
     0.1271543515       294.4870987
     0.1272255217       294.4876463
      0.127296692       294.4880971
     0.1273676398       294.4884466
     0.1274385877       294.4887039
     0.1275095355       294.4888784
     0.1275802602       294.4889799
      0.127650985       294.4890151
     0.1277217097       294.4889843
     0.1277924344        294.488881
     0.1278631592       294.4886953
     0.1279336586       294.4884136
     0.1280041581       294.4880149
     0.1280746576       294.4874703
     0.1281451571       294.4867507
     0.1282156566       294.4858154
     0.1282861561       294.4846166