# Probe 0 (3.4 0.005 1.5)
# Probe 1 (4.4 0.005 1.5)
# Probe 2 (5.4 0.005 1.5)
# Probe 3 (5.9 0.005 1.5)
# Probe 4 (6.2 0.005 1.5)
# Probe 5 (6.7 0.005 1.5)
# Probe 6 (8.2 0.005 1.5)
#           Probe                 0                 1                 2                 3                 4                 5                 6
#            Time
    1.1999904e-06     0.09999960001     0.09999960001     0.09999960001     0.09999960001     0.09999960001     0.09999960001     0.09999960001
  2.639965056e-06     0.09999912003     0.09999912003     0.09999912003     0.09999912003     0.09999912003     0.09999912003     0.09999912003
  4.367944597e-06     0.09999854405     0.09999854405     0.09999854405     0.09999854405     0.09999854405     0.09999854405     0.09999854405
  6.441505713e-06      0.0999978529      0.0999978529      0.0999978529      0.0999978529      0.0999978529      0.0999978529      0.0999978529
   8.92973777e-06     0.09999702355     0.09999702355     0.09999702355     0.09999702355     0.09999702355     0.09999702355     0.09999702355
  1.191552707e-05     0.09999602839     0.09999602839     0.09999602839     0.09999602839     0.09999602839     0.09999602839     0.09999602839
  1.549838863e-05     0.09999483426     0.09999483426     0.09999483426     0.09999483426     0.09999483426     0.09999483426     0.09999483426
  1.979776087e-05     0.09999340138     0.09999340138     0.09999340138     0.09999340138     0.09999340138     0.09999340138     0.09999340138
  2.495674128e-05     0.09999168209     0.09999168209     0.09999168209     0.09999168209     0.09999168209     0.09999168209     0.09999168209
  3.114713435e-05     0.09998961917     0.09998961917     0.09998961917     0.09998961917     0.09998961917     0.09998961917     0.09998961917
  3.857523794e-05     0.09998714396     0.09998714396     0.09998714396     0.09998714396     0.09998714396     0.09998714396     0.09998714396
  4.748896225e-05     0.09998417393     0.09998417393     0.09998417393     0.09998417393     0.09998417393     0.09998417393     0.09998417393
  5.818543142e-05     0.09998061023     0.09998061023     0.09998061023     0.09998061023     0.09998061023     0.09998061023     0.09998061023
  7.102064463e-05     0.09997633445     0.09997633445     0.09997633445     0.09997633445     0.09997633445     0.09997633445     0.09997633445
  8.642131685e-05     0.09997120472     0.09997120472     0.09997120472     0.09997120472     0.09997120472     0.09997120472     0.09997120472
  0.0001049009832     0.09996505043     0.09996505041     0.09996505041     0.09996505041     0.09996505041     0.09996505041     0.09996505041
  0.0001270765827      0.0999576667     0.09995766666     0.09995766666     0.09995766666     0.09995766666     0.09995766666     0.09995766666
  0.0001536896689     0.09994880752     0.09994880742     0.09994880742     0.09994880742     0.09994880742     0.09994880742     0.09994880742
  0.0001856219625     0.09993818066     0.09993818041     0.09993818041     0.09993818041     0.09993818041     0.09993818041     0.09993818041
  0.0002239407148     0.09992543287     0.09992543223     0.09992543223     0.09992543223     0.09992543223     0.09992543223     0.09992543223
  0.0002699019884     0.09991014919     0.09991014756     0.09991014757     0.09991014757     0.09991014757     0.09991014757     0.09991014757
  0.0003250351347     0.09989182559      0.0998918215      0.0998918215      0.0998918215      0.0998918215      0.0998918215      0.0998918215
  0.0003911802278     0.09986985791     0.09986984769      0.0998698477      0.0998698477      0.0998698477      0.0998698477      0.0998698477
  0.0004705543394     0.09984352257     0.09984349723     0.09984349724     0.09984349724     0.09984349724     0.09984349724     0.09984349724
  0.0005658032734     0.09981196497     0.09981190272     0.09981190273     0.09981190274     0.09981190274     0.09981190274     0.09981190274
  0.0006799700095      0.0997742211     0.09977407047     0.09977407047     0.09977407049     0.09977407049     0.09977407049     0.09977407049
  0.0008169700928     0.09972908283     0.09972872548     0.09972872544     0.09972872549     0.09972872549     0.09972872549     0.09972872549
  0.0009814618316     0.09967518161     0.09967435841     0.09967435827     0.09967435838     0.09967435838     0.09967435838     0.09967435838
   0.001179117227     0.09961095668     0.09960914153     0.09960914106     0.09960914131     0.09960914132     0.09960914132     0.09960914132
   0.001416111804     0.09953485147     0.09953110454     0.09953110306      0.0995311036     0.09953110362     0.09953110362     0.09953110362
   0.001666544217     0.09945543893     0.09944883298     0.09944882868     0.09944882974     0.09944882978     0.09944882978     0.09944882978
   0.001916976631      0.0993768238     0.09936675755     0.09936674637     0.09936674821     0.09936674829      0.0993667483      0.0993667483
   0.002167409044     0.09929857664     0.09928488252      0.0992848558     0.09928485873      0.0992848589     0.09928485892     0.09928485892
   0.002417841458     0.09922012529     0.09920321511     0.09920315619     0.09920316054     0.09920316087     0.09920316091     0.09920316092
   0.002668273871     0.09914091168     0.09912176699     0.09912164676     0.09912165285     0.09912165344     0.09912165354     0.09912165354
   0.002918706284     0.09906053728     0.09904055489      0.0990403268     0.09904033488     0.09904033587     0.09904033607     0.09904033607
   0.003169138698     0.09897885385     0.09895960123     0.09895919638     0.09895920655     0.09895920812     0.09895920847     0.09895920849
   0.003419571111     0.09889598163     0.09887893041     0.09887825365     0.09887826561     0.09887826799     0.09887826861     0.09887826865
   0.003670003524     0.09881229532     0.09879857031     0.09879749914     0.09879751199     0.09879751541     0.09879751647     0.09879751655
   0.003920435938     0.09872827914     0.09871854515     0.09871693313     0.09871694494     0.09871694962     0.09871695131     0.09871695146
   0.004170868351     0.09864439777     0.09863887113     0.09863655644     0.09863656378     0.09863656982      0.0986365724     0.09863657267
   0.004421300765     0.09856102093     0.09855955035     0.09855637024     0.09855636798     0.09855637525     0.09855637902     0.09855637947
   0.004671733178     0.09847843464     0.09848056578     0.09847637712     0.09847635838     0.09847636633     0.09847637158     0.09847637234
   0.004922165591      0.0983968325      0.0984018708     0.09839657723     0.09839653257     0.09839654008     0.09839654701     0.09839654822
   0.005172598005     0.09831625367     0.09832339205     0.09831697507     0.09831689198     0.09831689713     0.09831690575     0.09831690759
   0.005423030418      0.0982365571     0.09824502638     0.09823757554     0.09823743712     0.09823743712     0.09823744704     0.09823744976
   0.005673462831     0.09815750811     0.09816665167     0.09815838546     0.09815816865     0.09815815993     0.09815817019     0.09815817404
   0.005923895245     0.09807890071     0.09808814437     0.09807941281     0.09807908753     0.09807906566     0.09807907451     0.09807907973
   0.006174327658     0.09800061652     0.09800940337     0.09800066668     0.09800019475      0.0980001547      0.0980001594     0.09800016616
   0.006424760072     0.09792262982     0.09793037466     0.09792215659     0.09792149214     0.09792142753     0.09792142434     0.09792143264
   0.006675192485     0.09784497805     0.09785106911     0.09784389153     0.09784298259     0.09784288444     0.09784286892     0.09784287849
   0.006925624898     0.09776770875     0.09777156847     0.09776587838     0.09776466989     0.09776452614     0.09776449291     0.09776450305
   0.007176057312     0.09769083986     0.09769201869     0.09768811996       0.097686559     0.09768635377     0.09768629624     0.09768630564
   0.007426489725      0.0976143501     0.09761261329      0.0976106147     0.09760865764     0.09760837113     0.09760828086     0.09760828749
   0.007676922139     0.09753817749     0.09753355445     0.09753334703     0.09753096843     0.09753057739     0.09753044307     0.09753044413
   0.007927354552     0.09746225077     0.09745503452     0.09745629698     0.09745349989     0.09745297826     0.09745278498      0.0974527768
   0.008177786965     0.09738650261     0.09737719842     0.09737942781     0.09737625398     0.09737557427     0.09737530281     0.09737528072
   0.008428219379     0.09731083914     0.09730014145     0.09730271016     0.09729924734     0.09729838302     0.09729800952     0.09729796754
   0.008678651792     0.09723509269     0.09722386163     0.09722608542     0.09722246926      0.0972213981     0.09722089409      0.0972208243
   0.008929084205     0.09715909548     0.09714830974     0.09714951374     0.09714592117     0.09714462944     0.09714396255     0.09714385445
   0.009179516619     0.09708271627     0.09707337989     0.09707296217     0.09706959503     0.09706808213     0.09706721745     0.09706705732
   0.009429949032     0.09700588612     0.09699892337     0.09699641721     0.09699347669     0.09699175957     0.09699066204     0.09699043229
   0.009680381446     0.09692861812     0.09692475746      0.0969198901     0.09691754594     0.09691566244     0.09691430012     0.09691397873
   0.009930813859     0.09685101353     0.09685067498     0.09684341786     0.09684177749     0.09683978766     0.09683813596     0.09683769604
    0.01018124627     0.09677323844     0.09677645855     0.09676706168     0.09676614338     0.09676412754     0.09676217405     0.09676158366
    0.01043167869     0.09669550906     0.09670190333      0.0966909001     0.09669061667      0.0966886692     0.09668641872     0.09668564106
     0.0106821111     0.09661806626     0.09662684417     0.09661501666     0.09661517555     0.09661339448     0.09661087356      0.0966098678
    0.01093254351     0.09654114658     0.09655118263     0.09653948336     0.09653980691     0.09653828087     0.09653554081     0.09653426349
    0.01118297593     0.09646495326     0.09647490645     0.09646434121     0.09646450935     0.09646330329     0.09646042065     0.09645882781
    0.01143340834     0.09638963023     0.09639811057      0.0963895873     0.09638929432     0.09638843706     0.09638551052     0.09638356049
    0.01168384075     0.09631524132     0.09632099364     0.09631516826     0.09631418444     0.09631366113     0.09631080453     0.09630846126
    0.01193427317     0.09624175732     0.09624382306     0.09624098165      0.0962392089     0.09623896117     0.09623629285     0.09623352992
    0.01218470558     0.09616905595     0.09616691541     0.09616689122     0.09616439947     0.09616433447     0.09616196457     0.09615876944
    0.01243513799     0.09609692517     0.09609057785     0.09609273873     0.09608977101     0.09608977793     0.09608779601     0.09608417399
    0.01268557041     0.09602511394     0.09601507492     0.09601838665      0.0960153324     0.09601530462     0.09601376983     0.09600974719
    0.01293600282     0.09595337334      0.0959405753     0.09594373702     0.09594106915     0.09594092879     0.09593986434     0.09593548986
    0.01318643523     0.09588150342     0.09586713362     0.09586876062     0.09586694606     0.09586666501     0.09586605823     0.09586140317
    0.01343686765     0.09580937242     0.09579468974     0.09579351372     0.09579291352     0.09579252361     0.09579233245     0.09578748857
    0.01368730006     0.09573692822     0.09572309496     0.09571814025     0.09571891749     0.09571850706     0.09571867178     0.09571374785
    0.01393773247     0.09566419878      0.0956521499     0.09564285813     0.09564491259     0.09564460889       0.095645066     0.09564018306
    0.01418816489     0.09559128111     0.09558163369     0.09556793158     0.09557087903     0.09557081642      0.0955715106     0.09556679651
     0.0144385973     0.09551832273     0.09551132682     0.09549363033     0.09549683126     0.09549711675      0.0954980069      0.0954935906
    0.01468902971     0.09544549114     0.09544101452     0.09542018265     0.09542282962     0.09542350263     0.09542456179     0.09542056769
    0.01493946213     0.09537292748     0.09537051009     0.09534772807     0.09534897688     0.09534997734     0.09535118726     0.09534772985
    0.01518989454     0.09530070112     0.09529967314     0.09527628783     0.09527540877     0.09527656605         0.0952779     0.09527507857
    0.01544032695     0.09522877587      0.0952284276     0.09520574559     0.09520227384     0.09520331803     0.09520472137     0.09520261435
    0.01569075937     0.09515699091     0.09515677494     0.09513586765     0.09512970831     0.09513030495     0.09513167732     0.09513033623
    0.01594119178     0.09508508715     0.09508478753     0.09506634681     0.09505781143     0.09505761432      0.0950587974      0.0950582413
    0.01619162419     0.09501277949     0.09501256257     0.09499684809     0.09498662093     0.09498533633     0.09498611304     0.09498632424
    0.01644205661     0.09493984629     0.09494019648     0.09492706288     0.09491609723       0.094913548     0.09491366009     0.09491457692
    0.01669248902     0.09486619953     0.09486784069     0.09485677651     0.09484612256     0.09484229803     0.09484147655     0.09484298818
    0.01694292143     0.09479191375     0.09479620006     0.09478610147     0.09477652105     0.09477159308       0.094769599     0.09477154389
    0.01719335385     0.09471721851     0.09472535724     0.09471504229     0.09470707191     0.09470138849     0.09469806092     0.09470022733
    0.01744378626      0.0946424629     0.09465463463      0.0946438888     0.09463754469     0.09463159088     0.09462688789     0.09462902005
    0.01769421867     0.09456805606     0.09458368221     0.09457291807     0.09456773821       0.094562059      0.0945560929      0.0945579033
    0.01794465109     0.09449439447     0.09451214934     0.09450220988     0.09449752299     0.09449262564     0.09448567165     0.09448685974
     0.0181950835     0.09442179325     0.09443968135     0.09443162918     0.09442686254     0.09442311148     0.09441559923     0.09441587547
    0.01844551591     0.09435044326     0.09436622148     0.09436086769     0.09435582731      0.0943533539     0.09434582898     0.09434494203
    0.01869594833     0.09428039518     0.09429207359      0.0942895407     0.09428457672     0.09428324356     0.09427629394     0.09427405809
    0.01894638074     0.09421156082      0.0942177555     0.09421733197     0.09421330991     0.09421274785     0.09420691068     0.09420323063
    0.01919681315     0.09414373049     0.09414386159     0.09414413641      0.0941422087     0.09414192583     0.09413759042     0.09413248033
    0.01944724557     0.09407658609     0.09407093141     0.09407014025     0.09407135983     0.09407090083     0.09406822952     0.09406182216
    0.01969767798     0.09400978308      0.0939993833     0.09399583087      0.0940007527     0.09399985917     0.09399875049       0.093991293
    0.01994811039     0.09394300708     0.09392943529     0.09392183622      0.0939302663     0.09392898589     0.09392909685      0.0939209304
    0.02019854281     0.09387602387     0.09386109238     0.09384880002     0.09385971991     0.09385842287     0.09385925031     0.09385077436
    0.02044897522     0.09380869657     0.09379415719     0.09377728847     0.09378894872     0.09378823162     0.09378923792     0.09378086306
    0.02069940763     0.09374097655     0.09372829297     0.09370766742     0.09371788969     0.09371837767      0.0937191316     0.09371122812
    0.02094984005     0.09367287441      0.0936630937     0.09363999014     0.09364664506     0.09364874599     0.09364903745     0.09364189035
    0.02120027246     0.09360442078     0.09359815474     0.09357397094     0.09357548844     0.09357918831     0.09357907663     0.09357285742
    0.02145070487     0.09353563603     0.09353312138     0.09350907232     0.09350480933     0.09350958679     0.09350936246     0.09350412338
    0.02170113729     0.09346651874     0.09346769754     0.09344462864     0.09343501728     0.09343990859     0.09343997712     0.09343566947
     0.0219515697     0.09339705773     0.09340166159     0.09337995842     0.09336642841     0.09337023522     0.09337095473     0.09336746577
    0.02220200211     0.09332725186     0.09333487449     0.09331449637     0.09329915762     0.09330075977     0.09330227498     0.09329947305
    0.02245243453     0.09325713465     0.09326729972     0.09324789625     0.09323306329     0.09323174225     0.09323387371     0.09323164513
    0.02270286694     0.09318679084     0.09319899756     0.09318007143     0.09316778206     0.09316342176     0.09316566373     0.09316393202
    0.02295329935     0.09311636706     0.09313006134     0.09311117999      0.0931028049     0.09309593071     0.09309756462     0.09309628421
    0.02320373177     0.09304606651     0.09306065599     0.09304156518     0.09303757378     0.09302924911     0.09302952722      0.0930286578
    0.02345416418      0.0929761364     0.09299098623     0.09297166695     0.09297160709      0.0929631968     0.09296154909     0.09296101969
    0.02370459659     0.09290682627      0.0929212625     0.09290192056       0.092904609     0.09289745714     0.09289367454     0.09289335215
    0.02395502901     0.09283837973     0.09285167797     0.09283266301     0.09283653188     0.09283164476     0.09282597547     0.09282565554
    0.02420546142     0.09277097805     0.09278239703     0.09276408089     0.09276757146     0.09276540487     0.09275852285     0.09275794907
    0.02445589384     0.09270473103     0.09271359585      0.0926962079     0.09269810496     0.09269850438     0.09269136029     0.09269026913
    0.02470632625     0.09263965001     0.09264548124      0.0926289528     0.09262859646     0.09263088788     0.09262448603     0.09262266556
    0.02495675866     0.09257564142     0.09257821121     0.09256215193     0.09255948888     0.09256268263     0.09255784861     0.09255519622
    0.02520719108     0.09251248445     0.09251187722     0.09249563176     0.09249111626     0.09249415975     0.09249135987     0.09248792045
    0.02545762349     0.09244985019     0.09244649203      0.0924292608     0.09242364495     0.09242566838      0.0924249222     0.09242089168
     0.0257080559     0.09238735182     0.09238197643     0.09236297652     0.09235706184      0.0923575487     0.09235845731     0.09235414983
    0.02595848832     0.09232460684     0.09231816707      0.0922967852     0.09229120799     0.09229005737     0.09229192466     0.09228771469
    0.02620892073     0.09226125172     0.09225484344     0.09223073971       0.092225841     0.09222331647     0.09222532905     0.09222158139
    0.02645935314     0.09219698914     0.09219176209      0.0921649046     0.09216070776     0.09215730148     0.09215871943     0.09215571887
    0.02670978556     0.09213164702     0.09212867452     0.09209932236     0.09209561036     0.09209186925     0.09209217256     0.09209007219
    0.02696021797     0.09206521354     0.09206535373     0.09203399363     0.09203044364     0.09202681294     0.09202577381     0.09202456868
    0.02721065038     0.09199783792     0.09200160636     0.09196887533     0.09196519621       0.091961924     0.09195959629     0.09195912747
     0.0274610828     0.09192980066     0.09193728922     0.09190389728     0.09189992321     0.09189704373     0.09189368746      0.0918936715
    0.02771151521     0.09186145591     0.09187232322     0.09183898925     0.09183470664      0.0918320932     0.09182806611     0.09182814059
    0.02796194762     0.09179316541     0.09180669404     0.09177410149     0.09176961662      0.0917670777     0.09176272678     0.09176250311
    0.02821238004     0.09172523802     0.09174043748     0.09170921045     0.09170468418     0.09170206691     0.09169764909     0.09169676376
    0.02846281245     0.09165788763     0.09167364532     0.09164431219     0.09163989367     0.09163715801     0.09163280878     0.09163096551
    0.02871324486     0.09159121586     0.09160646296     0.09157940785     0.09157519469     0.09157243524      0.0915681863     0.09156518447
    0.02896367728     0.09152521764     0.09153908425     0.09151448597     0.09151052602     0.09150793818     0.09150376974     0.09149951889
    0.02921410969     0.09145980417     0.09147173871     0.09144951204     0.09144583959     0.09144364795     0.09143955129     0.09143407428
     0.0294645421     0.09139483548     0.09140467159     0.09138443245     0.09138111525     0.09137949373     0.09137551986     0.09136894619
    0.02971497452     0.09133015442     0.09133811852     0.09131919231     0.09131636198     0.09131537548      0.0913116535     0.09130420381
    0.02996540693     0.09126561528     0.09127228023     0.09125375987     0.09125160766      0.0912511943     0.09124791455     0.09123987795
    0.03021583934     0.09120110427      0.0912073023     0.09118814811      0.0911868829      0.0911868806     0.09118424951      0.0911759563
    0.03046627176     0.09113655661     0.09114326028     0.09112243357     0.09112221359     0.09112241937     0.09112060134       0.091112394
    0.03071670417     0.09107193713     0.09108013463     0.09105672337     0.09105758539     0.09105782325     0.09105689031     0.09104909493
    0.03096713658     0.09100727605       0.091017888     0.09099118261     0.09099299274     0.09099316425     0.09099306968     0.09098596793
      0.031217569     0.09094264047     0.09095641781     0.09092597888     0.09092842381     0.09092852325     0.09092910816     0.09092291351
    0.03146800141     0.09087812966     0.09089556503     0.09086126261     0.09086388446     0.09086397592     0.09086500501     0.09085984628
    0.03171843382     0.09081385758     0.09083513526     0.09079714637     0.09079941059     0.09079957822     0.09080079279     0.09079670739
    0.03196886624     0.09074993059     0.09077492192     0.09073369471     0.09073507017     0.09073536201     0.09073653403      0.0907334726
    0.03221929865     0.09068642457     0.09071472774      0.0906709245      0.0906709545      0.0906713409     0.09067231191     0.09067015447
    0.03246973106     0.09062336809      0.0906543835      0.0906088139      0.0906071622     0.09060752268     0.09060821701      0.0906067985
    0.03272016348     0.09056073752     0.09059376279      0.0905473142      0.0905437818     0.09054392269     0.09054433298     0.09054347401
    0.03297059589     0.09049846572     0.09053279344     0.09048635608     0.09048087753     0.09048057181     0.09048072428     0.09048026174
     0.0332210283     0.09043646229     0.09047146269     0.09042584754     0.09041848182     0.09041751649      0.0904174283     0.09041723913
    0.03347146072     0.09037463856     0.09040980717     0.09036566777     0.09035659454     0.09035481079     0.09035445336       0.090354466
    0.03372189313     0.09031292826     0.09034788832      0.0903056637     0.09029518703     0.09029250357     0.09029178283     0.09029197354
    0.03397232554     0.09025129975     0.09028577129     0.09024565418     0.09023420671     0.09023062515     0.09022938457     0.09022975893
    0.03422275796     0.09018975404     0.09022350978     0.09018544307     0.09017357983      0.0901691776     0.09016722289     0.09016778675
    0.03447319037     0.09012830522     0.09016113961     0.09012484006     0.09011321227     0.09010813049     0.09010526989     0.09010599622
    0.03472362278     0.09006696264     0.09009869296     0.09006368641     0.09005298999     0.09004742221     0.09004351301     0.09004431286
     0.0349740552     0.09000571599     0.09003620408     0.09000188075     0.08999278163     0.08998696627     0.08998195678     0.08998266274
    0.03522448761     0.08994452747     0.08997370981     0.08993940029     0.08993244605     0.08992666031     0.08992061845     0.08992098664
    0.03547492002     0.08988333383     0.08991125169     0.08987631265     0.08987184597     0.08986639518     0.08985951889     0.08985925084
    0.03572535244     0.08982206081     0.08984888091     0.08981277538      0.0898108665     0.08980606344     0.08979867102     0.08979745229
    0.03597578485     0.08976064427     0.08978666574     0.08974902088     0.08974943528     0.08974556781     0.08973806874     0.08973561753
    0.03622621726     0.08969905038     0.08972468426     0.08968532618     0.08968753963     0.08968483029      0.0896776799     0.08967379616
    0.03647664968     0.08963729207     0.08966300635     0.08962197007     0.08962523647     0.08962380134     0.08961744513     0.08961205105
    0.03672708209     0.08957543868     0.08960168239     0.08955918492     0.08956265135     0.08956246792      0.0895572835     0.08955044705
     0.0369775145     0.08951361073     0.08954073793     0.08949711367       0.089499966     0.08950085917     0.08949710413     0.08948904046
    0.03722794692      0.0894519573     0.08948017654     0.08943578376     0.08943739414     0.08943904793     0.08943682131     0.08942787138
    0.03747837933     0.08939062562      0.0894199917     0.08937510739     0.08937514908     0.08937714584     0.08937637032     0.08936696032
    0.03772881174     0.08932972972     0.08936018359     0.08931491173      0.0893134082     0.08931529156     0.08931572065     0.08930630875
    0.03797924416     0.08926932268     0.08930077077     0.08925499104     0.08925228103     0.08925363259     0.08925488376     0.08924590251
    0.03822967657     0.08920939479     0.08924178891     0.08919516378     0.08919178886     0.08919230297     0.08919391312     0.08918571691
    0.03848010898     0.08914987544     0.08918327148     0.08913531567     0.08913186197     0.08913140084     0.08913289645     0.08912572218
     0.0387305414     0.08909063172     0.08912522101     0.08907541678     0.08907235722     0.08907097097     0.08907194172     0.08906588867
    0.03898097381     0.08903147637     0.08906758741     0.08901550964     0.08901309135     0.08901099643     0.08901115934     0.08900619037
    0.03923140622     0.08897221011     0.08901026138     0.08895567554      0.0889538823     0.08895140301      0.0889506442     0.08894660656
    0.03948183864     0.08891266932     0.08895308563     0.08889599506     0.08889458729     0.08889207561     0.08889046069     0.08888712203
    0.03973227105     0.08885274036     0.08889588179      0.0888365187     0.08883512809     0.08883288355     0.08883063336     0.08882772671
    0.03998270346     0.08879242729     0.08883848223     0.08877725658     0.08877549801     0.08877370805     0.08877114478     0.08876841483
    0.04023313588     0.08873180505     0.08878075442     0.08871818604     0.08871575109     0.08871446558     0.08871194101     0.08870918393
    0.04048356829     0.08867101172     0.08872261293     0.08865926897     0.08865597936     0.08865512165     0.08865294299      0.0886500337
     0.0407340007     0.08861021631     0.08866402433     0.08860046848     0.08859628642     0.08859569225      0.0885940617     0.08859096533
    0.04098443312     0.08854960056     0.08860499626     0.08854175754     0.08853676521     0.08853623312     0.08853521399     0.08853198112
    0.04123486553     0.08848929946      0.0885455623     0.08848311842     0.08847748444     0.08847682164     0.08847633631     0.08847308425
    0.04148529795     0.08842942929     0.08848580495     0.08842453732     0.08841848367     0.08841753689     0.08841739378     0.08841427844
    0.04173573036     0.08836999978     0.08842586211     0.08836599974     0.08835977474     0.08835844342      0.0883583834     0.08835556757
    0.04198616277     0.08831099511     0.08836592449     0.08830749085     0.08830134574     0.08829958169     0.08829933155     0.08829695518
    0.04223659519     0.08825229929     0.08830621391     0.08824900047     0.08824316566     0.08824096605     0.08824028707      0.0882384441
     0.0424870276     0.08819372472     0.08824694997     0.08819052886     0.08818518914     0.08818258818     0.08818131136     0.08818003635
    0.04273746001     0.08813511998     0.08818831678     0.08813208893     0.08812736245     0.08812442392     0.08812246795     0.08812173316
    0.04298789243     0.08807625151        0.08813043     0.08807370243     0.08806963109     0.08806644084     0.08806381284     0.08806353496
    0.04323832484     0.08801723063     0.08807331395     0.08801539234     0.08801194829     0.08800860514      0.0880053874     0.08800544121
    0.04348875725     0.08795793288     0.08801691235      0.0879571763     0.08795428229     0.08795088738     0.08794721439     0.08794744988
    0.04373918967     0.08789824777     0.08796110039      0.0878990654     0.08789661988     0.08789326694     0.08788929748     0.08788955689
    0.04398962208     0.08783813822     0.08790570373     0.08784106939     0.08783896505     0.08783573483     0.08783162378     0.08783175542
    0.04424005449     0.08777763766     0.08785052942     0.08778320583     0.08778133298     0.08777829403     0.08777416869     0.08777403583
    0.04449048691     0.08771692281     0.08779538832     0.08772550838     0.08772374271      0.0877209566     0.08771690211     0.08771638615
    0.04474091932      0.0876562729     0.08774010941     0.08766802828     0.08766621166     0.08766373747     0.08765979476     0.08765879364
    0.04499135173     0.08759600244      0.0876845508     0.08761082481     0.08760875494     0.08760664646     0.08760282338     0.08760124707
    0.04524178415      0.0875363671     0.08762861092     0.08755394732     0.08755138931     0.08754968117     0.08754597354     0.08754373946