# Probe 0 (0.4 0.005 1.4)
# Probe 1 (0.9 0.005 1.4)
# Probe 2 (1.4 0.005 1.4)
# Probe 3 (1.9 0.005 1.4)
# Probe 4 (2.4 0.005 1.4)
# Probe 5 (2.9 0.005 1.4)
# Probe 6 (3.4 0.005 1.4)
# Probe 7 (3.9 0.005 1.4)
# Probe 8 (4.4 0.005 1.4)
# Probe 9 (4.9 0.005 1.4)
# Probe 10 (5.4 0.005 1.4)
# Probe 11 (5.9 0.005 1.4)
# Probe 12 (6.4 0.005 1.4)
# Probe 13 (6.9 0.005 1.4)
# Probe 14 (7.4 0.005 1.4)
# Probe 15 (7.9 0.005 1.4)
# Probe 16 (8.4 0.005 1.4)
#           Probe                 0                 1                 2                 3                 4                 5                 6                 7                 8                 9                10                11                12                13                14                15                16
#            Time
    1.1999904e-06                 1                 1                 1                 1      0.9999923816                 1                 1                 1                 1                 1                 1                 1                 1                 1                 1                 1                 1
  2.639965056e-06                 1                 1                 1      0.9999999999      0.9999832383                 1                 1                 1                 1                 1                 1                 1                 1                 1                 1                 1                 1
  4.367944597e-06                 1                 1                 1      0.9999999997       0.999972264                 1                 1                 1                 1                 1                 1                 1                 1                 1                 1                 1                 1
  6.441505713e-06                 1                 1                 1      0.9999999995      0.9999590915                 1                 1                 1                 1                 1                 1                 1                 1                 1                 1                 1                 1
   8.92973777e-06                 1                 1                 1       0.999999999      0.9999432796                 1                 1                 1                 1                 1                 1                 1                 1                 1                 1                 1                 1
  1.191552707e-05                 1                 1                 1      0.9999999982      0.9999242985                 1                 1                 1                 1                 1                 1                 1                 1                 1                 1                 1                 1
  1.549838863e-05                 1                 1                 1       0.999999997       0.999901511                 1                 1                 1                 1                 1                 1                 1                 1                 1                 1                 1                 1
  1.979776087e-05                 1                 1                 1      0.9999999951       0.999874151                 1                 1                 1                 1                 1                 1                 1                 1                 1                 1                 1                 1
  2.495674128e-05                 1                 1                 1      0.9999999922      0.9998412984                 1                 1                 1                 1                 1                 1                 1                 1                 1                 1                 1                 1
  3.114713435e-05                 1                 1                 1      0.9999999879      0.9998018456                 1                 1                 1                 1                 1                 1                 1                 1                 1                 1                 1                 1
  3.857523794e-05                 1                 1                 1      0.9999999814      0.9997544584                 1                 1                 1                 1                 1                 1                 1                 1                 1                 1                 1                 1
  4.748896225e-05                 1                 1                 1      0.9999999717      0.9996975269                 1                 1                 1                 1                 1                 1                 1                 1                 1                 1                 1                 1
  5.818543142e-05                 1                 1                 1      0.9999999573      0.9996291126                 1                 1                 1                 1                 1                 1                 1                 1                 1                 1                 1                 1
  7.102064463e-05                 1                 1                 1      0.9999999359      0.9995468794                 1                 1                 1                 1                 1                 1                 1                 1                 1                 1                 1                 1
  8.642131685e-05                 1                 1                 1      0.9999999041      0.9994480073                 1                 1                 1                 1                 1                 1                 1                 1                 1                 1                 1                 1
  0.0001049009832                 1                 1                 1      0.9999998567       0.999329074                 1                 1                 1                 1                 1                 1                 1                 1                 1                 1                 1                 1
  0.0001270765827                 1                 1                 1      0.9999997854      0.9991859249                 1                 1                 1                 1                 1                 1                 1                 1                 1                 1                 1                 1
  0.0001536896689                 1                 1                 1      0.9999996771      0.9990135015                 1                 1                 1                 1                 1                 1                 1                 1                 1                 1                 1                 1
  0.0001856219625                 1                 1                 1      0.9999995105      0.9988056867      0.9999999999                 1                 1                 1                 1                 1                 1                 1                 1                 1                 1                 1
  0.0002239407148                 1                 1                 1      0.9999992496      0.9985549258      0.9999999999                 1                 1                 1                 1                 1                 1                 1                 1                 1                 1                 1
  0.0002699019884                 1                 1                 1      0.9999988325      0.9982520714      0.9999999996                 1                 1                 1                 1                 1                 1                 1                 1                 1                 1                 1
  0.0003250351347                 1                 1                 1      0.9999981513      0.9978856131       0.999999999                 1                 1                 1                 1                 1                 1                 1                 1                 1                 1                 1
  0.0003911802278                 1                 1                 1       0.999997015      0.9974410771      0.9999999972                 1                 1                 1                 1                 1                 1                 1                 1                 1                 1                 1
  0.0004705543394                 1                 1                 1      0.9999950899      0.9969000254      0.9999999923                 1                 1                 1                 1                 1                 1                 1                 1                 1                 1                 1
  0.0005658032734                 1                 1                 1      0.9999918076      0.9962388709      0.9999999792                 1                 1                 1                 1                 1                 1                 1                 1                 1                 1                 1
  0.0006799700095                 1                 1                 1      0.9999862628      0.9954280128      0.9999999441                 1                 1                 1                 1                 1                 1                 1                 1                 1                 1                 1
  0.0008169700928                 1                 1                 1      0.9999771245      0.9944272712      0.9999998553                 1                 1                 1                 1                 1                 1                 1                 1                 1                 1                 1
  0.0009814618316                 1                 1                 1      0.9999627438      0.9931858938      0.9999996464                 1                 1                 1                 1                 1                 1                 1                 1                 1                 1                 1
   0.001179117227                 1                 1                 1      0.9999415958      0.9916407963      0.9999992047                 1                 1                 1                 1                 1                 1                 1                 1                 1                 1                 1
   0.001416111804                 1                 1                 1      0.9999130466      0.9897217369      0.9999983916                 1                 1                 1                 1                 1                 1                 1                 1                 1                 1                 1
   0.001666544217                 1                 1                 1      0.9998814008      0.9876288339      0.9999972596                 1                 1                 1                 1                 1                 1                 1                 1                 1                 1                 1
   0.001916976631                 1                 1      0.9999999999      0.9998474033      0.9854708442      0.9999959202                 1                 1                 1                 1                 1                 1                 1                 1                 1                 1                 1
   0.002167409044                 1                 1      0.9999999999      0.9998089935       0.983237321      0.9999943969                 1                 1                 1                 1                 1                 1                 1                 1                 1                 1                 1
   0.002417841458                 1                 1      0.9999999998      0.9997652834      0.9809182287      0.9999926573                 1                 1                 1                 1                 1                 1                 1                 1                 1                 1                 1
   0.002668273871                 1                 1      0.9999999997      0.9997161749      0.9785082818      0.9999906346      0.9999999999                 1                 1                 1                 1                 1                 1                 1                 1                 1                 1
   0.002918706284                 1                 1      0.9999999995      0.9996620446      0.9760065943      0.9999882531      0.9999999999                 1                 1                 1                 1                 1                 1                 1                 1                 1                 1
   0.003169138698                 1                 1      0.9999999994      0.9996031242      0.9734134189      0.9999854421      0.9999999999                 1                 1                 1                 1                 1                 1                 1                 1                 1                 1
   0.003419571111                 1                 1      0.9999999992      0.9995389887      0.9707265975      0.9999821315      0.9999999998                 1                 1                 1                 1                 1                 1                 1                 1                 1                 1
   0.003670003524                 1                 1       0.999999999      0.9994687796      0.9679412621      0.9999782453      0.9999999998                 1                 1                 1                 1                 1                 1                 1                 1                 1                 1
   0.003920435938                 1                 1      0.9999999987      0.9993919038      0.9650526743      0.9999737085      0.9999999997                 1                 1                 1                 1                 1                 1                 1                 1                 1                 1
   0.004170868351                 1                 1      0.9999999984      0.9993083714      0.9620585057      0.9999684649      0.9999999996                 1                 1                 1                 1                 1                 1                 1                 1                 1                 1
   0.004421300765                 1                 1      0.9999999979      0.9992185499      0.9589583199      0.9999624894      0.9999999995                 1                 1                 1                 1                 1                 1                 1                 1                 1                 1
   0.004671733178                 1                 1      0.9999999974      0.9991227032      0.9557515321      0.9999557819      0.9999999994                 1                 1                 1                 1                 1                 1                 1                 1                 1                 1
   0.004922165591                 1                 1      0.9999999967      0.9990207758      0.9524360652      0.9999483461      0.9999999992                 1                 1                 1                 1                 1                 1                 1                 1                 1                 1
   0.005172598005                 1                 1      0.9999999958      0.9989125251      0.9490071051      0.9999417814       0.999999999                 1                 1                 1                 1                 1                 1                 1                 1                 1                 1
   0.005423030418                 1                 1      0.9999999948      0.9987976925      0.9454611859      0.9999362448      0.9999999987                 1                 1                 1                 1                 1                 1                 1                 1                 1                 1
   0.005673462831                 1                 1      0.9999999934      0.9986760206      0.9417962214      0.9999307212      0.9999999984                 1                 1                 1                 1                 1                 1                 1                 1                 1                 1
   0.005923895245                 1                 1      0.9999999919      0.9985472464       0.938009289      0.9999248501       0.999999998                 1                 1                 1                 1                 1                 1                 1                 1                 1                 1
   0.006174327658                 1                 1        0.99999999      0.9984111013      0.9341012766      0.9999146993      0.9999999975                 1                 1                 1                 1                 1                 1                 1                 1                 1                 1
   0.006424760072                 1                 1      0.9999999878      0.9982673885      0.9300665379      0.9999024515      0.9999999969                 1                 1                 1                 1                 1                 1                 1                 1                 1                 1
   0.006675192485                 1                 1      0.9999999852      0.9981159514      0.9259012764      0.9998888184      0.9999999963                 1                 1                 1                 1                 1                 1                 1                 1                 1                 1
   0.006925624898                 1                 1       0.999999982       0.997956602      0.9216021981      0.9998740032      0.9999999955                 1                 1                 1                 1                 1                 1                 1                 1                 1                 1
   0.007176057312                 1                 1      0.9999999784      0.9977890448      0.9171602196      0.9998630311      0.9999999946                 1                 1                 1                 1                 1                 1                 1                 1                 1                 1
   0.007426489725                 1                 1      0.9999999741      0.9976129565      0.9125810487       0.999847473      0.9999999935                 1                 1                 1                 1                 1                 1                 1                 1                 1                 1
   0.007676922139                 1                 1       0.999999969      0.9974280886       0.907858684      0.9998295518      0.9999999922                 1                 1                 1                 1                 1                 1                 1                 1                 1                 1
   0.007927354552                 1                 1      0.9999999632      0.9972342286      0.9029888809      0.9998099885      0.9999999907                 1                 1                 1                 1                 1                 1                 1                 1                 1                 1
   0.008177786965                 1                 1      0.9999999565      0.9970310778      0.8979676794      0.9997889923       0.999999989                 1                 1                 1                 1                 1                 1                 1                 1                 1                 1
   0.008428219379                 1                 1      0.9999999487      0.9968183023      0.8927911856      0.9997665895      0.9999999869                 1                 1                 1                 1                 1                 1                 1                 1                 1                 1
   0.008678651792                 1                 1      0.9999999399       0.996595516      0.8874552085      0.9997427279      0.9999999846                 1                 1                 1                 1                 1                 1                 1                 1                 1                 1
   0.008929084205                 1                 1      0.9999999298      0.9963623712      0.8819556322      0.9997173393      0.9999999819                 1                 1                 1                 1                 1                 1                 1                 1                 1                 1
   0.009179516619                 1                 1      0.9999999184      0.9961185386      0.8762884078      0.9996903925      0.9999999788                 1                 1                 1                 1                 1                 1                 1                 1                 1                 1
   0.009429949032                 1                 1      0.9999999056      0.9958636677      0.8704494582        0.99966181      0.9999999754                 1                 1                 1                 1                 1                 1                 1                 1                 1                 1
   0.009680381446                 1                 1      0.9999998911      0.9955973681      0.8644346139      0.9996315168      0.9999999716                 1                 1                 1                 1                 1                 1                 1                 1                 1                 1
   0.009930813859                 1                 1       0.999999875       0.995319211      0.8582395856      0.9995994557      0.9999999674                 1                 1                 1                 1                 1                 1                 1                 1                 1                 1
    0.01018124627                 1                 1      0.9999998569      0.9950287398      0.8518599901      0.9995655556      0.9999999628                 1                 1                 1                 1                 1                 1                 1                 1                 1                 1
    0.01043167869                 1                 1      0.9999998368      0.9947254648      0.8452913161      0.9995296982      0.9999999577                 1                 1                 1                 1                 1                 1                 1                 1                 1                 1
     0.0106821111                 1                 1       0.999999816      0.9944086607      0.8385289534      0.9994917585      0.9999999523                 1                 1                 1                 1                 1                 1                 1                 1                 1                 1
    0.01093254351                 1                 1      0.9999997938      0.9940779086      0.8315682389      0.9994516119      0.9999999463                 1                 1                 1                 1                 1                 1                 1                 1                 1                 1
    0.01118297593                 1                 1      0.9999997701      0.9937326832      0.8244044889      0.9994091131      0.9999999398                 1                 1                 1                 1                 1                 1                 1                 1                 1                 1
    0.01143340834                 1                 1      0.9999997435      0.9933726622      0.8170329365      0.9993640167      0.9999999325                 1                 1                 1                 1                 1                 1                 1                 1                 1                 1
    0.01168384075                 1                 1      0.9999997177      0.9929970409      0.8094487285      0.9993162455      0.9999999256                 1                 1                 1                 1                 1                 1                 1                 1                 1                 1
    0.01193427317                 1                 1      0.9999996875      0.9926051039       0.801646984      0.9992656824      0.9999999183                 1                 1                 1                 1                 1                 1                 1                 1                 1                 1
    0.01218470558                 1                 1      0.9999996583       0.992196163      0.7936229231      0.9992122051      0.9999999086                 1                 1                 1                 1                 1                 1                 1                 1                 1                 1
    0.01243513799                 1                 1      0.9999996248      0.9917694804      0.7853716277       0.999155671      0.9999998977                 1                 1                 1                 1                 1                 1                 1                 1                 1                 1
    0.01268557041                 1                 1      0.9999995862      0.9913242778      0.7768882745      0.9990959361      0.9999998867                 1                 1                 1                 1                 1                 1                 1                 1                 1                 1
    0.01293600282                 1                 1       0.999999542      0.9908597248       0.768168214      0.9990328641      0.9999998745                 1                 1                 1                 1                 1                 1                 1                 1                 1                 1
    0.01318643523                 1                 1      0.9999994894      0.9903749404      0.7592071738      0.9989663074      0.9999998596                 1                 1                 1                 1                 1                 1                 1                 1                 1                 1
    0.01343686765                 1                 1      0.9999994331      0.9898690024      0.7500016989      0.9988961168      0.9999998408                 1                 1                 1                 1                 1                 1                 1                 1                 1                 1
    0.01368730006                 1                 1      0.9999993688      0.9893409761      0.7405500718      0.9988221318      0.9999998197                 1                 1                 1                 1                 1                 1                 1                 1                 1                 1
    0.01393773247                 1                 1      0.9999993025        0.98878994      0.7308547581      0.9987442112      0.9999997962                 1                 1                 1                 1                 1                 1                 1                 1                 1                 1
    0.01418816489                 1                 1      0.9999992274      0.9882151199      0.7209313933      0.9986621935      0.9999997708                 1                 1                 1                 1                 1                 1                 1                 1                 1                 1
     0.0144385973                 1                 1      0.9999991491      0.9876166056      0.7108701803      0.9985759793      0.9999997426                 1                 1                 1                 1                 1                 1                 1                 1                 1                 1
    0.01468902971                 1                 1      0.9999990403      0.9870089153      0.7023230408      0.9984864395      0.9999997046                 1                 1                 1                 1                 1                 1                 1                 1                 1                 1
    0.01493946213                 1                 1      0.9999989131      0.9864390281      0.6994222542      0.9983976101        0.99999966                 1                 1                 1                 1                 1                 1                 1                 1                 1                 1
    0.01518989454                 1                 1      0.9999987722      0.9859020192      0.6972945245      0.9983134096      0.9999996102                 1                 1                 1                 1                 1                 1                 1                 1                 1                 1
    0.01544032695                 1                 1      0.9999986214      0.9853865933      0.6952050445      0.9982351456       0.999999556                 1                 1                 1                 1                 1                 1                 1                 1                 1                 1
    0.01569075937                 1                 1      0.9999984649      0.9848755364      0.6930875363      0.9981608858      0.9999994989                 1                 1                 1                 1                 1                 1                 1                 1                 1                 1
    0.01594119178                 1                 1      0.9999983071       0.984356347      0.6909182804      0.9980871917      0.9999994404                 1                 1                 1                 1                 1                 1                 1                 1                 1                 1
    0.01619162419                 1                 1      0.9999981516      0.9838236291      0.6886994816      0.9980111408      0.9999993818                 1                 1                 1                 1                 1                 1                 1                 1                 1                 1
    0.01644205661                 1                 1      0.9999979999      0.9832783478      0.6864485232      0.9979313836      0.9999993239                 1                 1                 1                 1                 1                 1                 1                 1                 1                 1