/*---------------------------------------------------------------------------*\
| =========                 |                                                 |
| \\      /  F ield         | OpenFOAM: The Open Source CFD Toolbox           |
|  \\    /   O peration     | Version:  2306                                  |
|   \\  /    A nd           | Website:  www.openfoam.com                      |
|    \\/     M anipulation  |                                                 |
\*---------------------------------------------------------------------------*/
FoamFile
{
    version     2.0;
    format      ascii;
    class       volScalarField;
    object      Su;
}
// * * * * * * * * * * * * * * * * * * * * * * * * * * * * * * * * * * * * * //

dimensions      [0 1 -1 0 0 0 0];

internalField   uniform 0.64;

boundaryField
{
    // Symmetry Plane patches---------------------------------------------------
    symmetry
    {
        type symmetryPlane;
    }
    chamberWalls
    {
        type            zeroGradient;
    }
    ventWall
    {
        type            zeroGradient;
    }
    porch
    {
        type            zeroGradient;
    }
    ground
    {
        type            zeroGradient;
    }
    outletFarfield
    {
         type            zeroGradient;
    }

// Arbitrary Mesh Interface (AMI) patches-----------------------------------
    // Front interface----------------------------------------------------------
    // Mid-1 to Step-2_D1
    mid-1_front_AMI_master 
    {
        type            cyclicAMI;
        value           uniform 0.64;
    }

    mid-1_front_AMI_slave 
    {
        type            cyclicAMI;
        value           uniform 0.64;
    }

    // Mid-2 to Step-2_D2
    mid-2_front_AMI_master 
    {
        type            cyclicAMI;
        value           uniform 0.64;
    }

    mid-2_front_AMI_slave 
    {
        type            cyclicAMI;
        value           uniform 0.64;
    }

    // Mid-2 to Step-2_D3
    mid-3_front_AMI_master 
    {
        type            cyclicAMI;
        value           uniform 0.64;
    }

    mid-3_front_AMI_slave 
    {
        type            cyclicAMI;
        value           uniform 0.64;
    }

    // Mid-2 to Step-2_D4
    mid-4_front_AMI_master 
    {
        type            cyclicAMI;
        value           uniform 0.64;
    }

    mid-4_front_AMI_slave 
    {
        type            cyclicAMI;
        value           uniform 0.64;
    }

    // Mid-2 to Step-2_D5
    mid-5_front_AMI_master 
    {
        type            cyclicAMI;
        value           uniform 0.64;
    }

    mid-5_front_AMI_slave 
    {
        type            cyclicAMI;
        value           uniform 0.64;
    }

    // Left interface-----------------------------------------------------------
    // Mid-1 to Step-2_D1
    mid-1_leftSide_AMI_master
    {
        type            cyclicAMI;
        value           uniform 0.64;
    }

    mid-1_leftSide_AMI_slave
    {
        type            cyclicAMI;
        value           uniform 0.64;
    }

    // Mid-2 to Step-2_D2
    mid-2_leftSide_AMI_master
    {
        type            cyclicAMI;
        value           uniform 0.64;
    }

    mid-2_leftSide_AMI_slave
    {
        type            cyclicAMI;
        value           uniform 0.64;
    }

    // Mid-2 to Step-2_D3
    mid-3_leftSide_AMI_master
    {
        type            cyclicAMI;
        value           uniform 0.64;
    }

    mid-3_leftSide_AMI_slave
    {
        type            cyclicAMI;
        value           uniform 0.64;
    }

    // Mid-2 to Step-2_D4
    mid-4_leftSide_AMI_master
    {
        type            cyclicAMI;
        value           uniform 0.64;
    }

    mid-4_leftSide_AMI_slave
    {
        type            cyclicAMI;
        value           uniform 0.64;
    }

    // Mid-2 to Step-2_D5
    mid-5_leftSide_AMI_master
    {
        type            cyclicAMI;
        value           uniform 0.64;
    }

    mid-5_leftSide_AMI_slave
    {
        type            cyclicAMI;
        value           uniform 0.64;
    }

    // Top interface------------------------------------------------------------
    // Mid-1 to Step-2_D1
    mid-1_top_AMI_master 
    {
        type            cyclicAMI;
        value           uniform 0.64;
    }

    mid-1_top_AMI_slave 
    {
        type            cyclicAMI;
        value           uniform 0.64;
    }

    // Mid-2 to Step-2_D2
    mid-2_top_AMI_master 
    {
        type            cyclicAMI;
        value           uniform 0.64;
    }

    mid-2_top_AMI_slave 
    {
        type            cyclicAMI;
        value           uniform 0.64;
    }

    // Mid-2 to Step-2_D3
    mid-3_top_AMI_master 
    {
        type            cyclicAMI;
        value           uniform 0.64;
    }

    mid-3_top_AMI_slave 
    {
        type            cyclicAMI;
        value           uniform 0.64;
    }

    // Mid-2 to Step-2_D4
    mid-4_top_AMI_master 
    {
        type            cyclicAMI;
        value           uniform 0.64;
    }

    mid-4_top_AMI_slave 
    {
        type            cyclicAMI;
        value           uniform 0.64;
    }

    // Mid-2 to Step-2_D5
    mid-5_top_AMI_master 
    {
        type            cyclicAMI;
        value           uniform 0.64;
    }

    mid-5_top_AMI_slave 
    {
        type            cyclicAMI;
        value           uniform 0.64;
    }

    // Back interface-----------------------------------------------------------
    mid-1_back_AMI_master
    {
        type            cyclicAMI;
        value           uniform 0.64;
    }

    mid-1_back_AMI_slave 
    {
        type            cyclicAMI;
        value           uniform 0.64;
    }
}

// ************************************************************************* //
