# Continuity error
# Time            # Local           # Global          # Cumulative      
0.05              6.3744552876e-08	1.1026980743e-09	1.1026980743e-09
0.1               8.8472854875e-08	9.9503876208e-09	1.1053085695e-08
0.15              1.1151085653e-07	2.4301242557e-08	3.5354328252e-08
0.2               2.4622599463e-07	1.3629693885e-08	4.8984022137e-08
0.25              7.1921579951e-07	7.5288909504e-08	1.2427293164e-07
0.3               1.2782265098e-06	1.5692219417e-07	2.8119512581e-07
