# Probe 0 (6 0.005 0.305)
# Probe 1 (6.3 0.005 0.305)
# Probe 2 (6.8 0.005 0.305)
# Probe 3 (8.3 0.005 0.305)
#           Probe                 0                 1                 2                 3
#            Time
    1.1999904e-06            101325            101325            101325            101325
  2.639965056e-06            101325            101325            101325            101325
  4.367944597e-06            101325            101325            101325            101325
  6.441505713e-06            101325            101325            101325            101325
   8.92973777e-06            101325            101325            101325            101325
  1.191552707e-05            101325            101325            101325            101325
  1.549838863e-05            101325            101325            101325            101325
  1.979776087e-05            101325            101325            101325            101325
  2.495674128e-05            101325            101325            101325            101325
  3.114713435e-05            101325            101325            101325            101325
  3.857523794e-05            101325            101325            101325            101325
  4.748896225e-05            101325            101325            101325            101325
  5.818543142e-05            101325            101325            101325            101325
  7.102064463e-05            101325            101325            101325            101325
  8.642131685e-05            101325            101325            101325            101325
  0.0001049009832            101325            101325            101325            101325
  0.0001270765827            101325            101325            101325            101325
  0.0001536896689            101325            101325            101325            101325
  0.0001856219625            101325            101325            101325            101325
  0.0002239407148            101325            101325            101325            101325
  0.0002699019884            101325            101325            101325            101325
  0.0003250351347            101325            101325            101325            101325
  0.0003911802278            101325            101325            101325            101325
  0.0004705543394            101325            101325            101325            101325
  0.0005658032734            101325            101325            101325            101325
  0.0006799700095            101325            101325            101325            101325
  0.0008169700928            101325            101325            101325            101325
  0.0009814618316            101325            101325            101325            101325
   0.001179117227            101325            101325            101325            101325
   0.001416111804            101325            101325            101325            101325
   0.001666544217            101325            101325            101325            101325
   0.001916976631       101324.9999            101325            101325            101325
   0.002167409044       101324.9996            101325            101325            101325
   0.002417841458        101324.999       101324.9999            101325            101325
   0.002668273871       101324.9976       101324.9998            101325            101325
   0.002918706284        101324.995       101324.9995            101325            101325
   0.003169138698       101324.9905       101324.9989            101325            101325
   0.003419571111        101324.984       101324.9977            101325            101325
   0.003670003524       101324.9753       101324.9956       101324.9999            101325
   0.003920435938       101324.9652       101324.9922       101324.9998            101325
   0.004170868351       101324.9548       101324.9872       101324.9995            101325
   0.004421300765       101324.9457       101324.9804       101324.9989            101325
   0.004671733178       101324.9392       101324.9721        101324.998            101325
   0.004922165591       101324.9361        101324.963       101324.9965            101325
   0.005172598005       101324.9362       101324.9541       101324.9941            101325
   0.005423030418       101324.9387       101324.9465       101324.9906            101325
   0.005673462831       101324.9432       101324.9413       101324.9859            101325
   0.005923895245       101324.9501       101324.9392         101324.98            101325
   0.006174327658       101324.9617       101324.9405       101324.9731            101325
   0.006424760072       101324.9828       101324.9453       101324.9657            101325
   0.006675192485        101325.021       101324.9541       101324.9585            101325
   0.006925624898       101325.0851       101324.9686       101324.9525            101325
   0.007176057312       101325.1872       101324.9925       101324.9486       101324.9999
   0.007426489725       101325.3474       101325.0318       101324.9477       101324.9998
   0.007676922139       101325.5962       101325.0947       101324.9509       101324.9997
   0.007927354552       101325.9756       101325.1931       101324.9593       101324.9995
   0.008177786965       101326.5405       101325.3447       101324.9745       101324.9992
   0.008428219379       101327.3569       101325.5754       101324.9994       101324.9988
   0.008678651792       101328.4982       101325.9204       101325.0384       101324.9981
   0.008929084205       101330.0381       101326.4255       101325.0976        101324.997
   0.009179516619       101332.0402       101327.1451       101325.1863       101324.9956
   0.009429949032        101334.546       101328.1391       101325.3185       101324.9938
   0.009680381446       101337.5615       101329.4678       101325.5141       101324.9914
   0.009930813859       101341.0456       101331.1846       101325.7998       101324.9885
    0.01018124627       101344.9022       101333.3266       101326.2093       101324.9852
    0.01043167869       101348.9644       101335.9073       101326.7818       101324.9815
     0.0106821111       101352.9746       101338.9031       101327.5605       101324.9779
    0.01093254351       101356.6117       101342.2401         101328.59       101324.9748
    0.01118297593       101359.5249       101345.7762       101329.9118       101324.9728
    0.01143340834       101361.3502       101349.3063       101331.5597       101324.9731
    0.01168384075       101361.7497       101352.5703       101333.5517       101324.9769
    0.01193427317       101360.4851       101355.2867       101335.8785       101324.9859
    0.01218470558        101357.505       101357.1437        101338.495       101325.0023
    0.01243513799       101352.9986       101357.8397       101341.3074       101325.0286
    0.01268557041       101347.3987       101357.1532       101344.1772       101325.0675
    0.01293600282       101341.3382       101355.0024       101346.9304       101325.1231
    0.01318643523       101335.5648       101351.4848       101349.3581       101325.2014
    0.01343686765       101330.7845       101346.8928       101351.2227       101325.3109
    0.01368730006       101327.5208       101341.6933       101352.2899       101325.4628
    0.01393773247       101326.0532       101336.4735       101352.3659       101325.6713
    0.01418816489       101326.4204       101331.8593       101351.3354       101325.9533
     0.0144385973       101328.5022       101328.4175       101349.1958       101326.3277
    0.01468902971       101332.1269       101326.5594        101346.079       101326.8149
    0.01493946213       101337.1226       101326.4848       101342.2547       101327.4354
    0.01518989454       101343.2987       101328.1968       101338.1138       101328.2079
    0.01544032695        101350.398       101331.5512       101334.1322       101329.1467
    0.01569075937       101358.0523        101336.297       101330.8129       101330.2612
    0.01594119178       101365.7436       101342.1028        101328.604       101331.5471
    0.01619162419       101372.8253       101348.5761       101327.8211       101332.9912
    0.01644205661       101378.4029       101355.2871       101328.5916       101334.5594
    0.01669248902       101381.5727       101361.7412       101330.8551       101336.2022
    0.01694292143       101381.6507       101367.3127       101334.3996       101337.8504
    0.01719335385       101378.3803       101371.3415       101338.8881       101339.4141
    0.01744378626       101372.1096        101373.173        101343.877       101340.7891
    0.01769421867          101363.8       101372.3021       101348.8902       101341.8608
    0.01794465109       101354.8214       101368.6002       101353.3942       101342.5231
     0.0181950835       101346.6144       101362.4573       101356.8809        101342.687
    0.01844551591        101340.381        101354.757       101358.9133       101342.3024
    0.01869594833       101336.9295       101346.7167       101359.1857       101341.3682
    0.01894638074       101336.6993        101339.669       101357.5941       101339.9397
    0.01919681315       101339.8622       101334.8404        101354.295       101338.1179
    0.01944724557       101346.4512        101333.148       101349.7268        101336.054
    0.01969767798       101356.3744       101335.0959       101344.5858       101333.9497
    0.01994811039       101369.2406       101340.6821       101339.7565       101332.0269
    0.02019854281       101384.1016       101349.4522       101336.1916       101330.4922
    0.02044897522       101399.2937       101360.6193       101334.7661       101329.5134
    0.02069940763        101412.519       101373.1828       101336.0811       101329.1783
    0.02094984005       101421.1986       101385.9877        101340.288       101329.5012
    0.02120027246       101423.1086       101397.7184       101347.0887       101330.4103
    0.02145070487       101416.8255       101406.9428       101355.7795       101331.7724
    0.02170113729       101402.6446       101411.9751        101365.361       101333.4085
     0.0219515697       101382.7095       101411.3748       101374.7215       101335.1182
    0.02220200211       101360.6183        101404.325       101382.8389       101336.7108
    0.02245243453       101340.5954       101390.9862       101388.9265       101338.0333
    0.02270286694       101326.3823       101372.8462       101392.2579       101338.9926
    0.02295329935       101320.2151       101352.7044       101392.2812       101339.5718
    0.02320373177       101322.3164       101334.1017       101388.6293       101339.8364
    0.02345416418       101331.0748       101320.3908       101381.2364       101339.9128
    0.02370459659       101343.7349       101313.8575       101370.5133       101339.9954
    0.02395502901       101357.2603       101315.2537       101357.4637       101340.3163
    0.02420546142       101369.0138       101323.7376       101343.6382       101341.0696
    0.02445589384       101377.2869       101336.9978       101330.9096       101342.3505
    0.02470632625       101381.5519        101351.887       101321.2068       101344.1561
    0.02495675866       101382.2762       101365.3656       101316.1754       101346.3876
    0.02520719108       101380.5123       101375.2351        101316.581        101348.859
    0.02545762349       101377.5138       101380.5604        101322.183       101351.3141
     0.0257080559        101374.454       101381.6219       101331.7803        101353.454
    0.02595848832       101372.2663       101379.5319       101343.4587       101354.9485
    0.02620892073       101371.5834        101375.777       101355.0998       101355.5718
    0.02645935314       101372.7309       101371.8027       101364.8879       101355.2433
    0.02670978556       101375.7337       101368.7133       101371.6326       101354.0318
    0.02696021797       101380.3241       101367.1445       101374.9575       101352.0766
    0.02721065038       101385.9728       101367.2922       101375.1752       101349.5517
     0.0274610828       101391.9886       101369.0379       101373.1297       101346.6618
    0.02771151521       101397.5361       101372.1173       101369.8516       101343.6327
    0.02796194762       101401.7572       101376.1472       101366.3047       101340.6881
    0.02821238004       101403.9402       101380.6462       101363.2516       101338.0554
    0.02846281245       101403.6881       101385.0265       101361.2079       101335.9146
    0.02871324486       101401.0344         101388.64       101360.4392        101334.349
    0.02896367728       101396.4498       101390.9185       101361.0288       101333.3871
    0.02921410969       101390.7143         101391.51       101362.8995       101333.0838
     0.0294645421       101384.6937       101390.3275       101365.8093       101333.5142
    0.02971497452       101379.1369       101387.5468       101369.3445       101334.7512
    0.02996540693        101374.549        101383.568       101372.9418       101336.8206
    0.03021583934       101371.1175       101378.9374       101375.9838       101339.6772
    0.03046627176       101368.7731       101374.2322       101377.9358       101343.1404
    0.03071670417       101367.3248       101369.9423       101378.4289       101346.8568
    0.03096713658       101366.5821       101366.3948       101377.3181       101350.3931
      0.031217569         101366.43       101363.7408       101374.7132       101353.2989
    0.03146800141       101366.8535       101361.9961       101370.9609       101355.2178
    0.03171843382       101367.9196       101361.1056        101366.573       101355.9291
    0.03196886624       101369.7225       101361.0095       101362.1235       101355.3788
    0.03221929865       101372.3097       101361.6714       101358.1475       101353.6966
    0.03246973106       101375.6138       101363.0716       101355.0618       101351.1972
    0.03272016348       101379.4162       101365.1722       101353.1619        101348.335
    0.03297059589       101383.3581       101367.8693       101352.5648       101345.6605
     0.0332210283       101386.9985       101370.9584       101353.2118       101343.6711
    0.03347146072       101389.8863       101374.1345       101354.8954        101342.728
    0.03372189313       101391.7072       101377.0304       101357.2985       101343.0096
    0.03397232554       101392.2829       101379.2824       101360.0396        101344.489
    0.03422275796       101391.6114       101380.5962        101362.724       101346.9714
    0.03447319037       101389.8783       101380.8773       101364.9942       101350.0686
    0.03472362278       101387.4473       101380.1547       101366.5876       101353.2682
     0.0349740552       101384.8294       101378.5561       101367.3621       101356.0352
    0.03522448761       101382.6259       101376.3521       101367.2938       101357.9084
    0.03547492002       101381.4215       101373.9957       101366.4541       101358.5961
    0.03572535244       101381.6423       101372.0594        101365.014       101358.0278
    0.03597578485       101383.4921       101371.0933       101363.2588       101356.3584
    0.03622621726       101386.8868       101371.4871       101361.5694       101353.9269
    0.03647664968       101391.4766       101373.4027       101360.3587       101351.1491
    0.03672708209       101396.6964       101376.9219       101359.9802         101348.43
     0.0369775145       101401.8728       101381.8102        101360.657       101346.1029
    0.03722794692       101406.3324       101387.5614       101362.5008       101344.3809
    0.03747837933       101409.5165       101393.5201       101365.5159       101343.3278
    0.03772881174       101411.0939       101398.9888       101369.5324       101342.8606
    0.03797924416       101411.0181       101403.3244       101374.2334       101342.7942
    0.03822967657       101409.5052       101406.0361       101379.1963       101342.8999
    0.03848010898       101406.9483       101406.8691       101383.9415       101342.9791
     0.0387305414       101403.8021       101405.8396       101387.9977       101342.9193
    0.03898097381       101400.5288       101403.1921       101390.9763       101342.7185
    0.03923140622       101397.4692       101399.3589       101392.6212       101342.4788
    0.03948183864       101394.7907       101394.8221       101392.8198       101342.3755
    0.03973227105       101392.4782       101390.0354       101391.6642       101342.6157
    0.03998270346       101390.3563       101385.3807       101389.3419       101343.3784
    0.04023313588       101388.1532        101381.148       101386.1071       101344.7716
    0.04048356829       101385.6041       101377.5232       101382.2632        101346.773
     0.0407340007       101382.5659       101374.5741       101378.1304       101349.3023
    0.04098443312        101379.102       101372.2469       101374.0091        101352.207
    0.04123486553       101375.4985       101370.3916       101370.1521       101355.2563
    0.04148529795       101372.2007       101368.8264       101366.7513       101358.1784
    0.04173573036       101369.7054       101367.4204       101363.9374       101360.7228
    0.04198616277       101368.4796       101366.1537       101361.7825       101362.7035
    0.04223659519       101368.8354       101365.1391       101360.2968       101364.0188
     0.0424870276       101370.8923       101364.6383        101359.421       101364.6367
    0.04273746001        101374.607       101364.8884       101359.0256       101364.6179
    0.04298789243       101379.7885       101366.0697       101358.9504       101364.0594
    0.04323832484       101386.0823       101368.3113       101359.0317       101363.0974
    0.04348875725       101392.9696       101371.6677       101359.1349       101361.8656
    0.04373918967        101399.826       101376.0624       101359.2233        101360.473
    0.04398962208       101406.0361       101381.2382       101359.3964       101359.0018
    0.04424005449       101411.1056       101386.7541       101359.8627       101357.5196
    0.04449048691       101414.7018       101392.0453       101360.8757       101356.0731
    0.04474091932       101416.7118       101396.6018       101362.6324       101354.6706
    0.04499135173       101417.1106       101399.9995       101365.2037       101353.3283
    0.04524178415       101415.9371       101402.0086       101368.4992       101352.0556
    0.04549221656       101413.3487       101402.6403       101372.2725       101350.8436
    0.04574264897       101409.6885       101402.0983       101376.1717       101349.6846
    0.04599308139       101405.4948        101400.684       101379.8224       101348.5893
     0.0462435138       101401.4133       101398.7045       101382.9166       101347.5893
    0.04649394621       101398.0417       101396.4234       101385.2741       101346.7247
    0.04674437863       101395.8009       101394.0616       101386.8595       101346.0291
    0.04699481104       101394.8409       101391.8316       101387.7506       101345.5136
    0.04724524345       101395.1256       101389.9671       101388.0724       101345.1713
    0.04749567587       101396.5924        101388.718       101387.9295       101344.9868
    0.04774610828       101399.2777        101388.322       101387.3666       101344.9461
    0.04799654069       101403.3112       101388.9768       101386.3781       101345.0474
    0.04824697311       101408.7809       101390.8112       101384.9632       101345.3053
    0.04849740552       101415.5498       101393.8491       101383.1982       101345.7583
    0.04874783793       101423.1271       101397.9983       101381.2889       101346.4638
    0.04899827035       101430.6549       101403.0277       101379.5704       101347.4836
    0.04924870276       101437.0089        101408.545       101378.4456       101348.8565
    0.04949913517       101440.9762       101414.0251       101378.2818       101350.5665
    0.04974956759       101441.4707       101418.8587        101379.315       101352.5703
             0.05       101437.7698       101422.4067       101381.5945       101354.7814
          0.05025       101429.7517       101424.0574       101384.9153       101357.0657
           0.0505        101418.112       101423.2988       101388.8943       101359.2741
          0.05075       101404.3398       101419.7715       101393.0553       101361.2457
            0.051       101390.4832       101413.3738       101396.9107       101362.8462
          0.05125        101378.717       101404.3786       101400.0001       101363.9841
           0.0515       101370.7818       101393.4243       101401.9225       101364.6189
          0.05175       101367.5068       101381.5825       101402.3244       101364.7571
            0.052       101368.6295       101370.3244       101400.8653       101364.4463
          0.05225        101372.991       101361.3016       101397.2844       101363.7661
           0.0525       101379.0163       101355.9686       101391.5049       101362.8324
          0.05275       101385.2816       101355.1695        101383.751       101361.7817
            0.053       101390.9198       101358.8651       101374.6343        101360.766
          0.05325       101395.7226        101366.095       101365.1628       101359.9461
           0.0535       101399.9326       101375.1953       101356.6447       101359.4768
          0.05375       101403.9365       101384.2836       101350.4629       101359.4815
            0.054       101407.9908       101391.7837       101347.7407       101360.0251
          0.05425        101412.096       101396.8501       101349.0031       101361.0999
           0.0545       101416.0802       101399.5143       101353.9657       101362.6182
          0.05475       101419.7393       101400.5319        101361.546       101364.4085
            0.055       101422.9835        101401.016        101370.117       101366.2309
          0.05525       101425.8888       101402.1157       101377.9492       101367.7993
           0.0555       101428.6438       101404.5753       101383.7087       101368.8352
          0.05575       101431.5036       101408.5545       101386.8282       101369.0915
            0.056       101434.4222       101413.6901       101387.7129       101368.3817
          0.05625       101437.0013       101419.3096       101387.4622       101366.6145
           0.0565       101438.5607       101424.6551       101387.4498       101363.8191
          0.05675       101438.4164       101429.0317       101388.8495        101360.148
            0.057       101436.2031       101431.6551        101392.238       101355.8557
          0.05725       101432.0513        101431.864       101397.4056        101351.319
           0.0575       101426.5021       101429.3851       101403.4483       101347.0266
          0.05775       101420.1735       101424.4358       101409.1176       101343.4545
            0.058        101413.429       101417.6274       101413.1334       101341.0413
          0.05825       101406.2433       101409.7488       101414.5747       101340.0691
           0.0585       101398.3811       101401.5137       101413.1663       101340.6559
          0.05875       101389.8031        101393.368       101409.2814        101342.737
            0.059       101381.0613       101385.4492       101403.7252        101346.034
          0.05925       101373.3915       101377.7391         101397.41       101350.1252
           0.0595       101368.4294       101370.3509        101391.058       101354.5071
          0.05975       101367.6685       101363.8009       101385.0242       101358.6759
             0.06       101371.9439       101359.0998       101379.2781       101362.2293
          0.06025       101381.1533        101357.564       101373.5441       101364.9459
           0.0605       101394.4595       101360.3834       101367.5595       101366.8309
          0.06075       101410.3901       101368.1221       101361.3605       101368.0873
            0.061       101427.1965       101380.3756       101355.4819       101369.0141
          0.06125       101443.1459       101395.7742       101350.9669       101369.9215
           0.0615       101456.6894        101412.287        101349.126       101371.0276
          0.06175       101466.5479       101427.7101       101351.1197       101372.4178
            0.062       101471.8282       101440.1974       101357.5182       101373.9767
          0.06225       101472.1966       101448.6242       101367.9981       101375.4307
           0.0625       101468.0535       101452.6727       101381.3067       101376.3961
          0.06275       101460.4983       101452.7301       101395.5246       101376.4847
            0.063       101451.0826       101449.6221       101408.5601       101375.3874
          0.06325       101441.4262       101444.3052       101418.7004       101372.9376
           0.0635       101432.8348        101437.714       101425.0341       101369.1585
          0.06375       101426.0427       101430.6881       101427.6549       101364.2259
            0.064       101421.1482       101423.8953       101427.3039       101358.4826
          0.06425       101417.7455       101417.7517       101425.0303       101352.4287
           0.0645       101415.1982       101412.4005       101421.8382       101346.6458
          0.06475        101412.954       101407.7836       101418.3879       101341.7497
            0.065       101410.7814       101403.7848       101414.8709       101338.3086
          0.06525       101408.8511       101400.3743       101411.1036       101336.7751
           0.0655       101407.6478       101397.6753       101406.7676       101337.4177
          0.06575        101407.764       101395.9292       101401.6849       101340.2764
            0.066       101409.6584       101395.3952       101396.0018       101345.1934
          0.06625       101413.4887       101396.2464       101390.2153       101351.7072
           0.0665       101418.9887       101398.5048       101385.0419       101359.1873
          0.06675       101425.4569       101402.0197       101381.1969       101366.9055
            0.067       101431.9525        101406.483       101379.1773       101374.1304
          0.06725       101437.5833       101411.5059       101379.1281       101380.2335
           0.0675       101441.7384       101416.5855       101380.8272       101384.7894
          0.06775       101444.2333       101421.2064       101383.7965       101387.6196
            0.068       101445.3039       101424.9874       101387.4865       101388.7698
          0.06825       101445.4563       101427.7649       101391.3583       101388.4404
           0.0685       101445.2477       101429.5749       101394.9979       101386.9062
          0.06875       101445.0803       101430.5797       101398.1833       101384.4631
            0.069       101445.0711       101430.9818       101400.8667       101381.3708
          0.06925       101445.0402       101430.9421       101403.0975       101377.8115
           0.0695       101444.6377       101430.5155       101404.9419       101373.9497
          0.06975       101443.5971        101429.643       101406.4402       101369.9422
             0.07       101441.9827        101428.225       101407.6017       101365.9799
          0.07025       101440.2894       101426.2566        101408.413        101362.306
           0.0705       101439.3297       101423.9587       101408.8465       101359.2149
          0.07075       101439.9451       101421.8312       101408.8747       101356.9995
            0.071       101442.6623       101420.5804       101408.4948        101355.879
          0.07125        101447.449       101420.9287       101407.7662       101355.9352
           0.0715       101453.7393       101423.3673       101406.8498       101357.0996
          0.07175       101460.5831        101427.947       101406.0262       101359.1566
            0.072       101466.9779       101434.1966       101405.6725       101361.7714
          0.07225       101472.2617         101441.22       101406.1871       101364.5774
           0.0725       101476.2399       101447.9436       101407.8751       101367.2517
          0.07275       101478.9957       101453.4322       101410.8288       101369.5644
    0.07299772727       101480.4928       101457.1295       101414.8082       101371.3887
    0.07324545455       101480.4233        101459.067       101419.3544       101372.7486
    0.07349090909       101478.1327       101459.5991       101423.7577       101373.7215
    0.07373636364       101473.0298       101459.1969       101427.3784       101374.4329
    0.07397954545        101465.255       101458.1354         101429.69       101374.9747
    0.07422272727       101455.8561       101456.3628       101430.5426        101375.409
    0.07446363636       101446.9614       101453.6461       101430.1258       101375.7273
    0.07470454545       101440.8947       101449.7747       101428.9303       101375.8823
    0.07494318182       101439.5593       101444.9667       101427.5795       101375.8132
     0.0751795669       101443.3891       101439.9257       101426.5955       101375.4921
    0.07541372192       101451.3862        101435.744       101426.2361       101374.9455
    0.07564787695       101461.3594       101433.5466       101426.4381       101374.2514
    0.07587980194       101470.4224       101434.1293       101426.8687       101373.5674
    0.07610951811       101476.1257        101437.465        101427.077       101373.0764
    0.07633923428       101477.0559        101442.734       101426.6824       101372.9536