# Probe 0 (2.4 0 1.5)
#           Probe                 0
#            Time
    1.1999904e-06      0.9999683232
  2.639965056e-06       0.999930307
  4.367944597e-06      0.9998846792
  6.441505713e-06      0.9998299138
   8.92973777e-06      0.9997641782
  1.191552707e-05      0.9996852715
  1.549838863e-05      0.9995905475
  1.979776087e-05      0.9994768255
  2.495674128e-05      0.9993402871
  3.114713435e-05      0.9991763373
  3.857523794e-05      0.9989794432
  4.748896225e-05      0.9987429342
  5.818543142e-05       0.998458783
  7.102064463e-05       0.998117326
  8.642131685e-05      0.9977069136
  0.0001049009832       0.997213432
  0.0001270765827       0.996619789
  0.0001536896689      0.9959052431
  0.0001856219625      0.9950448395
  0.0002239407148      0.9940079771
  0.0002699019884      0.9927580165
  0.0003250351347      0.9912495514
  0.0003911802278      0.9894267334
  0.0004705543394      0.9872204869
  0.0005658032734      0.9845456019
  0.0006799700095      0.9812993464
  0.0008169700928      0.9773441078
  0.0009814618316      0.9725042372
   0.001179117227      0.9665478492
   0.001416111804      0.9591910387
   0.001666544217       0.951168257
   0.001916976631      0.9429213746
   0.002167409044      0.9344547731
   0.002417841458      0.9257462277
   0.002668273871      0.9167744483
   0.002918706284      0.9075243357
   0.003169138698      0.8979882465
   0.003419571111      0.8881636991
   0.003670003524      0.8780471929
   0.003920435938      0.8676299896
   0.004170868351      0.8569000021
   0.004421300765      0.8458458596
   0.004671733178      0.8344588584
   0.004922165591      0.8227316286
   0.005172598005      0.8106559402
   0.005423030418      0.7982222424
   0.005673462831      0.7854205678
   0.005923895245      0.7722411613
   0.006174327658      0.7586742468
   0.006424760072      0.7447096958
   0.006675192485      0.7303371149
   0.006925624898      0.7155461968
   0.007176057312      0.7003269338
   0.007426489725      0.6846695317
   0.007676922139      0.6685634149
   0.007927354552      0.6519976911
   0.008177786965      0.6349618028
   0.008428219379      0.6174458019
   0.008678651792       0.599439453
   0.008929084205      0.5809322256
   0.009179516619      0.5619134339
   0.009429949032      0.5423724232
   0.009680381446      0.5222985914
   0.009930813859      0.5016813203
    0.01018124627      0.4805098972
    0.01043167869      0.4587735148
     0.0106821111      0.4364613261
    0.01093254351      0.4135625566
    0.01118297593      0.3900665722
    0.01143340834      0.3659629535
    0.01168384075      0.3412415445
    0.01193427317      0.3158924626
    0.01218470558      0.2899063518
    0.01243513799      0.2632742119
    0.01268557041      0.2359879304
    0.01293600282      0.2080406626
    0.01318643523      0.1794276013
    0.01343686765      0.1501475616
    0.01368730006      0.1202065151
    0.01393773247     0.08962720563
    0.01418816489     0.05848433323
     0.0144385973     0.02714517011
    0.01468902971    0.002172444943
    0.01493946213  -0.0001978179123
    0.01518989454   4.994895257e-05
    0.01544032695   0.0001573425144
    0.01569075937   0.0001621598283
    0.01594119178   0.0001359192036
    0.01619162419   0.0001132754333
    0.01644205661   0.0001060106103
    0.01669248902   0.0001069766522
    0.01694292143   0.0001106730341
    0.01719335385   0.0001138472033
    0.01744378626   0.0001138132733
    0.01769421867   0.0001116756942
    0.01794465109   0.0001094248217
     0.0181950835   0.0001078057883
    0.01844551591   0.0001062719359
    0.01869594833   0.0001042782967
    0.01894638074    0.000102045096
    0.01919681315   9.991410586e-05
    0.01944724557   9.805419653e-05
    0.01969767798   9.614297851e-05
    0.01994811039   9.393520729e-05
    0.02019854281   9.156668332e-05
    0.02044897522   8.939534713e-05
    0.02069940763   8.767498961e-05
    0.02094984005   8.635468859e-05
    0.02120027246   8.540970441e-05
    0.02145070487   8.472410179e-05
    0.02170113729   8.419693506e-05
     0.0219515697   8.379128018e-05
    0.02220200211   8.349333782e-05
    0.02245243453   8.322309899e-05
    0.02270286694   8.281303129e-05
    0.02295329935   8.206980404e-05
    0.02320373177   8.093985684e-05
    0.02345416418   7.946723363e-05
    0.02370459659   7.774705202e-05
    0.02395502901   7.586507133e-05
    0.02420546142   7.385092172e-05
    0.02445589384   7.169460349e-05
    0.02470632625   6.940562418e-05
    0.02495675866   6.709287201e-05
    0.02520719108   6.494919691e-05
    0.02545762349   6.312163686e-05
     0.0257080559   6.160641094e-05
    0.02595848832   6.027407794e-05
    0.02620892073    5.89964816e-05
    0.02645935314   5.775085098e-05
    0.02670978556   5.656844621e-05
    0.02696021797   5.542630862e-05
    0.02721065038   5.428831763e-05
     0.0274610828   5.312090693e-05
    0.02771151521   5.240877615e-05
    0.02796194762   5.167237519e-05
    0.02821238004   5.098953275e-05
    0.02846281245   5.024080059e-05
    0.02871324486   4.938525293e-05
    0.02896367728   4.829384727e-05
    0.02921410969    4.68782705e-05
     0.0294645421    4.55070812e-05
    0.02971497452   4.438383424e-05
    0.02996540693   4.355057237e-05
    0.03021583934   4.286923904e-05
    0.03046627176   4.222482963e-05
    0.03071670417   4.155424864e-05
    0.03096713658   4.088039798e-05
      0.031217569   4.024852632e-05
    0.03146800141   3.966591354e-05
    0.03171843382   3.911071772e-05
    0.03196886624   3.855738457e-05
    0.03221929865   3.799459488e-05
    0.03246973106   3.743252972e-05
    0.03272016348   3.688278066e-05
    0.03297059589   3.634282267e-05
     0.0332210283    3.58078026e-05
    0.03347146072   3.528821886e-05
    0.03372189313   3.480266209e-05
    0.03397232554   3.436129665e-05
    0.03422275796   3.392658488e-05
    0.03447319037   3.344055946e-05
    0.03472362278   3.289497405e-05
     0.0349740552   3.234307885e-05
    0.03522448761   3.185406523e-05
    0.03547492002   3.144385647e-05
    0.03572535244   3.107682507e-05
    0.03597578485   3.068382294e-05
    0.03622621726   3.022068849e-05
    0.03647664968   2.966580143e-05
    0.03672708209   2.902104172e-05
     0.0369775145   2.832763142e-05
    0.03722794692    2.76686534e-05
    0.03747837933   2.708305269e-05
    0.03772881174   2.658480545e-05
    0.03797924416   2.620128061e-05
    0.03822967657   0.0006193311025
    0.03848010898    0.001442483512
     0.0387305414    0.002329971191
    0.03898097381    0.003225549605
    0.03923140622    0.004118679052
    0.03948183864     0.00501060641
    0.03973227105    0.005908619332
    0.03998270346    0.006816888348
    0.04023313588    0.007718718077
    0.04048356829     0.00857684985
     0.0407340007    0.009377715712
    0.04098443312     0.01016839253
    0.04123486553     0.01095074189
    0.04148529795     0.01170911172
    0.04173573036     0.01243314682
    0.04198616277     0.01311842149
    0.04223659519      0.0137753658
     0.0424870276     0.01440670746
    0.04273746001     0.01502152725
    0.04298789243     0.01563932976
    0.04323832484     0.01626863768
    0.04348875725      0.0169030431
    0.04373918967      0.0175240531
    0.04398962208     0.01813293466
    0.04424005449     0.01875464239
    0.04449048691     0.01940962748
    0.04474091932     0.02008332566
    0.04499135173      0.0207575379
    0.04524178415     0.02141678357
    0.04549221656     0.02205944971
    0.04574264897     0.02269084051
    0.04599308139     0.02331543594
     0.0462435138     0.02393463666
    0.04649394621     0.02454545328
    0.04674437863     0.02513880698
    0.04699481104     0.02570387876
    0.04724524345     0.02625395758
    0.04749567587     0.02679934143
    0.04774610828     0.02734325897
    0.04799654069     0.02788520377
    0.04824697311     0.02841622488
    0.04849740552     0.02892779545
    0.04874783793     0.02941704102
    0.04899827035     0.02988793487
    0.04924870276     0.03034581128
    0.04949913517     0.03079762927
    0.04974956759     0.03124646248
             0.05     0.03169067189
          0.05025     0.03212870561
           0.0505     0.03256224526
          0.05075      0.0329913904
            0.051     0.03341422627
          0.05125     0.03382882689
           0.0515     0.03423393818
          0.05175     0.03462971551
            0.052     0.03502001672
          0.05225     0.03540870093
           0.0525     0.03579701007
          0.05275     0.03618301918
            0.053     0.03656262956
          0.05325     0.03693956448
           0.0535     0.03731653273
          0.05375     0.03769448829
            0.054     0.03807101404
          0.05425     0.03844378126
           0.0545     0.03881185132
          0.05475     0.03917581708
            0.055     0.03953413479
          0.05525     0.03988758058
           0.0555     0.04023992551
          0.05575      0.0405847965
            0.056     0.04092569901
          0.05625     0.04126557357
           0.0565     0.04160238751
          0.05675     0.04193557366
            0.057     0.04226234089
          0.05725     0.04258268915
           0.0575     0.04289672094
          0.05775     0.04320488794
            0.058      0.0435075458
          0.05825      0.0438080647
           0.0585     0.04410563565
          0.05875     0.04439864234
            0.059     0.04468635994
          0.05925      0.0449701887
           0.0595     0.04525127982
          0.05975     0.04553088131
             0.06     0.04580792502
          0.06025      0.0460819351
           0.0605      0.0463527536
          0.06075     0.04662011765
            0.061     0.04688354108
          0.06125     0.04714307798
           0.0615     0.04739895899
          0.06175     0.04765153888
            0.062     0.04790139229
          0.06225     0.04814818919
           0.0625     0.04839160838
          0.06275     0.04863152408
            0.063     0.04886795405
          0.06325     0.04910096394
           0.0635     0.04933004103
          0.06375     0.04955457789
            0.064     0.04977472435
          0.06425      0.0499917108
           0.0645     0.05020611097
          0.06475     0.05041781108
            0.065     0.05062692526
          0.06525     0.05083401467
           0.0655     0.05103948827
          0.06575     0.05124336887
            0.066     0.05144548696
          0.06625     0.05164550081
           0.0665     0.05184311267
          0.06675     0.05203791998
            0.067     0.05223017964
          0.06725     0.05242074759
           0.0675      0.0526105834
          0.06775     0.05280008771
            0.068     0.05298876321
          0.06825     0.05317569874
           0.0685     0.05336031979
          0.06875     0.05354279277
            0.069     0.05372357819
          0.06925     0.05390278506
    0.06949798387     0.05407871264
         0.069742     0.05424972157
      0.069984064     0.05441740712
    0.07022419149     0.05458174571
    0.07046239796     0.05474301464
    0.07069869877     0.05490180825
    0.07093310918     0.05505865499
    0.07116751959      0.0552153269
     0.0714000396     0.05537073221
    0.07163068444      0.0555248851
    0.07186132928     0.05567864924
    0.07209009896     0.05583057214
    0.07231886864     0.05598237003
    0.07254576316     0.05613387202
    0.07277079789     0.05628589527
    0.07299583262      0.0564396048
    0.07321900755     0.05659257571
    0.07344033807     0.05674327533
    0.07366166859     0.05689194737
    0.07388115468     0.05703731975
    0.07409881173     0.05718007011
    0.07431646877     0.05732203889
    0.07453229676     0.05746221204
    0.07474812476     0.05760145097
     0.0749621237     0.05773813309
    0.07517430909     0.05787193126
    0.07538649448       0.058003873
    0.07559686633     0.05813303801
    0.07580723817     0.05826084494
    0.07601579646     0.05838664025
    0.07622255683     0.05851102065
    0.07642931721     0.05863544454
    0.07663427967     0.05875886926
    0.07683745985     0.05888118087
    0.07704064002     0.05900328767
     0.0772438202     0.05912514479
    0.07744520232     0.05924571513
    0.07764658444     0.05936622504
    0.07784616851     0.05948581332
    0.07804575258     0.05960568451
    0.07824353859     0.05972468668
     0.0784413246     0.05984365743
    0.07863731256     0.05996129738
    0.07883330052     0.06007868706
    0.07902749042     0.06019495362
    0.07922168033      0.0603114021
    0.07941407218     0.06042699028
    0.07960646403     0.06054254566
    0.07979705782     0.06065660757
    0.07998765161     0.06076997038
    0.08017644735     0.06088161545
    0.08036524309     0.06099302643
    0.08055224078     0.06110358786
    0.08073745753     0.06121356017
    0.08092267429     0.06132384997
    0.08110611011     0.06143291163
    0.08128954593     0.06154132857
    0.08147120083     0.06164793599
    0.08165285572     0.06175404518
    0.08183272969     0.06185928146
    0.08201260365     0.06196438929
    0.08219069668     0.06206888205
    0.08236702642     0.06217233813
    0.08254335615     0.06227528209
    0.08271792259     0.06237688764
    0.08289248903     0.06247818224
    0.08306529217     0.06257815122
    0.08323809531     0.06267779606
    0.08340913516     0.06277627605
      0.083580175     0.06287443028
    0.08375121484     0.06297242508
    0.08392047302     0.06306934491
     0.0840897312      0.0631662208
    0.08425898938      0.0632629817
    0.08442644694     0.06335848795
     0.0845939045     0.06345368816
    0.08476136206     0.06354859384
    0.08492699943      0.0636423373
     0.0850926368     0.06373612404
    0.08525827417     0.06383012127
    0.08542391154     0.06392441866
    0.08558768781     0.06401795582
    0.08575146409     0.06411172935
    0.08591524036     0.06420564131
    0.08607901664     0.06429955578
    0.08624088853     0.06439364476
    0.08640276043     0.06448783224
    0.08656463233     0.06458161948
    0.08672650423     0.06467477418
    0.08688642587     0.06476624975
    0.08704634751     0.06485747188
    0.08720626914     0.06494881407
    0.08736421644     0.06503954318
    0.08752216373     0.06513123385
    0.08768011102     0.06522378895
    0.08783605899     0.06531545088
    0.08799200695     0.06540685887
    0.08814795491     0.06549741678
    0.08830187757     0.06558572049
    0.08845580024     0.06567313257
     0.0886097229     0.06576018401
    0.08876364556     0.06584747595
    0.08891548819     0.06593416538
    0.08906733082     0.06602143672
    0.08921917345     0.06610901371
    0.08936890715     0.06619536329
    0.08951864085     0.06628150829
    0.08966837455     0.06636745665
    0.08981810825     0.06645335255
     0.0899656719     0.06653807802
    0.09011323555     0.06662283825
     0.0902607992     0.06670720804
    0.09040836285     0.06679090967
     0.0905559265     0.06687388804
    0.09070121994      0.0669549143
    0.09084651337     0.06703532378
    0.09099180681     0.06711516898
    0.09113710025     0.06719454737
    0.09128239369     0.06727228691
    0.09142530527     0.06734786466
    0.09156821685      0.0674228063
    0.09171112843     0.06749724585
    0.09185404001     0.06757129104
    0.09199695158     0.06764497539
    0.09213986316     0.06771821744
    0.09228022275     0.06778954553
    0.09242058234     0.06786006246
    0.09256094192     0.06792963899
    0.09270130151     0.06799830695
    0.09284166109     0.06806626886
    0.09297932146     0.06813252744
    0.09311698182     0.06819868296
    0.09325464219     0.06826489979
    0.09339230255     0.06833116902
    0.09352996291     0.06839815436
    0.09366762328     0.06846421058
     0.0938023547     0.06852808469
    0.09393708612     0.06859114236
    0.09407181754     0.06865410766
    0.09420654895     0.06871657262
    0.09434128037     0.06877858472
    0.09447601179     0.06884036089
    0.09460753532     0.06890005541
    0.09473905885     0.06895972441
    0.09487058238     0.06901955937
    0.09500210591     0.06907955446
    0.09513362944      0.0691395786
    0.09526515297     0.06919994456
     0.0953966765     0.06925999316
    0.09552820002     0.06931936576
    0.09565596574     0.06937627809
    0.09578373145     0.06943253552
    0.09591149716     0.06948842001
    0.09603926288     0.06954428638
    0.09616702859     0.06960042577
    0.09629479431     0.06965695336
    0.09642256002     0.06971378264
    0.09655032573     0.06977068298
    0.09667809145     0.06982738169
    0.09680585716     0.06988365993
    0.09693362287     0.06993939268
    0.09706138859     0.06999453304
    0.09718383073     0.07004682033
    0.09730627287     0.07009857341
    0.09742871501     0.07014978927
    0.09755115716     0.07020049474
     0.0976735993     0.07025076145
    0.09779604144     0.07030069962
    0.09791848358     0.07035043364
    0.09804092572     0.07040007779
    0.09816336787     0.07044971396
    0.09828581001     0.07049937133
    0.09840825215     0.07054901269
    0.09853069429     0.07059852839
    0.09865313644     0.07064774715
    0.09877557858     0.07069647318
    0.09889802072     0.07074454148
    0.09902046286     0.07079187015
      0.099142905     0.07083849009
    0.09926534715     0.07088453499
    0.09938778929     0.07093019226
    0.09951023143     0.07097564134
    0.09963267357     0.07102101109
    0.09975511572     0.07106636695
    0.09987755786     0.07111172086
              0.1     0.07115705073
     0.1001184834     0.07120085305
     0.1002366861     0.07124444606
     0.1003546086     0.07128777809
     0.1004722517     0.07133079442
     0.1005898948      0.0713735513
     0.1007072585     0.07141593312
     0.1008243434     0.07145797557
     0.1009411502     0.07149976804
     0.1010576795     0.07154143558
      0.101173932     0.07158309136
     0.1012899085     0.07162478656
     0.1014056094     0.07166647826
     0.1015210355     0.07170804105
     0.1016359146     0.07174921446
     0.1017505214     0.07178995008
     0.1018648566     0.07183015716
      0.101978921     0.07186982575
      0.102092715     0.07190901623
     0.1022062394     0.07194783267
     0.1023194947     0.07198639778
     0.1024327501     0.07202492022
     0.1025457364     0.07206339755
     0.1026584544     0.07210187025
     0.1027709046     0.07214031725
     0.1028830877     0.07217866227
     0.1029952709     0.07221688898
     0.1031071869     0.07225480571
     0.1032188364     0.07229235421
     0.1033299556     0.07232944731
     0.1034408108     0.07236622977
     0.1035514027     0.07240278673
     0.1036617319     0.07243919923
     0.1037717991      0.0724755159
     0.1038813446     0.07251165733
     0.1039906305     0.07254768768
     0.1040996574     0.07258358984
      0.104208426     0.07261937643
     0.1043169368     0.07265509223
     0.1044251905     0.07269079117
     0.1045331877     0.07272649634
      0.104640929     0.07276216797
     0.1047484149     0.07279769865
     0.1048556462      0.0728329505
     0.1049626233      0.0728678141
      0.105069347     0.07290225925
     0.1051758177     0.07293635064
     0.1052822884     0.07297030273
     0.1053885063     0.07300418571
     0.1054944718     0.07303811756
     0.1056001857     0.07307215087
     0.1057056484     0.07310627312
     0.1058111112      0.0731405192
     0.1059163228     0.07317475784
     0.1060212839       0.073208957
     0.1061259952     0.07324309766
     0.1062307064     0.07327723984
     0.1063351677     0.07331126722
     0.1064393797     0.07334513024
      0.106543343     0.07337878361
     0.1066470582     0.07341221444
     0.1067505258     0.07344544832
     0.1068539935      0.0734786168
     0.1069572136     0.07351170004
     0.1070601868     0.07354473581
     0.1071629136     0.07357772155
     0.1072653947     0.07361062209
     0.1073676305     0.07364339305
     0.1074696219     0.07367600252
     0.1075713692     0.07370844983
     0.1076728731     0.07374076631
     0.1077741342     0.07377299898
      0.107875153     0.07380518686
     0.1079759301     0.07383734128
     0.1080764662     0.07386943888
     0.1081770022     0.07390150111
     0.1082772972     0.07393338275
     0.1083773516     0.07396502925
     0.1084774061     0.07399649269
       0.10857722     0.07402771034
      0.108676794     0.07405872887
     0.1087761286      0.0740896097
     0.1088752245     0.07412040907
     0.1089740821     0.07415116205
     0.1090729397     0.07418195243
     0.1091715591     0.07421269312
     0.1092699409     0.07424335782
     0.1093680857     0.07427392702
     0.1094659939      0.0743044058
     0.1095636662     0.07433483053
     0.1096613385      0.0743653322
     0.1097587749     0.07439589212
     0.1098559759     0.07442653134
     0.1099529421     0.07445721451
     0.1100499084     0.07448792442
     0.1101466398     0.07451845817
     0.1102431371     0.07454868947
     0.1103396343     0.07457860815
     0.1104358973     0.07460813114
     0.1105319267     0.07463732978
      0.110627723     0.07466633208
     0.1107235193     0.07469535835
     0.1108190825     0.07472446841
     0.1109144132     0.07475374436
     0.1110097439     0.07478328122
     0.1111048421     0.07481297789
     0.1111997083     0.07484277176
     0.1112943432     0.07487259082
     0.1113889781     0.07490244474
     0.1114833815     0.07493221865
     0.1115775542     0.07496189737
     0.1116717269      0.0749915614
     0.1117656687     0.07502115825
     0.1118593803      0.0750507064
     0.1119530919     0.07508028512
     0.1120465732     0.07510981236
     0.1121398249     0.07513927341
     0.1122330766     0.07516873432
     0.1123263282     0.07519820723
     0.1124193496     0.07522764789
     0.1125123711     0.07525716689
     0.1126051622     0.07528672668
     0.1126979534     0.07531642705
     0.1127905143     0.07534620967
     0.1128830752     0.07537615434
     0.1129754059     0.07540618502
     0.1130677365     0.07543636867
     0.1131600672     0.07546668373
      0.113252167     0.07549701605
     0.1133442668     0.07552738757
     0.1134361358     0.07555765591
     0.1135280048     0.07558782657
      0.113619643     0.07561775898
      0.113711051     0.07564740098
     0.1138024589       0.075676794
     0.1138936366     0.07570585573
     0.1139845846      0.0757346113
     0.1140755326     0.07576319507
      0.114166251     0.07579163701
     0.1142567402     0.07582007404
     0.1143472295     0.07584872689
     0.1144374897     0.07587764517
     0.1145275213     0.07590689821
     0.1146173251     0.07593649188
     0.1147071288     0.07596644331
     0.1147967046     0.07599656751
     0.1148862805     0.07602680821
     0.1149756283     0.07605696201
     0.1150647489     0.07608693451
     0.1151538694     0.07611675485
     0.1152427626     0.07614634861
     0.1153316558     0.07617583061
     0.1154203216     0.07620518203
     0.1155089875     0.07623453344
      0.115597426     0.07626385104
     0.1156856377      0.0762931578
     0.1157738494     0.07632253517
     0.1158618344     0.07635190181
     0.1159495932      0.0763812446
     0.1160371264      0.0764105449
     0.1161246595     0.07644663466
     0.1162119671     0.07648480827
     0.1162992747     0.07651678826
     0.1163863567      0.0765534011
     0.1164732136     0.07659138255
     0.1165600706     0.07662975227
     0.1166467025     0.07666806997
     0.1167333345     0.07670634341
     0.1168197414     0.07674446248
     0.1169061483     0.07678253588
     0.1169923302     0.07682047242
     0.1170782877     0.07685827534
     0.1171642452     0.07689604552
     0.1172499782     0.07693369649
     0.1173357113     0.07697135296
     0.1174212199     0.07700895478
     0.1175065046     0.07704654384
     0.1175917894     0.07708425191
     0.1176768503     0.07712199142
     0.1177619112     0.07715984115
     0.1178467483     0.07719764908
     0.1179315854     0.07723544142
     0.1180161986     0.07727304373
     0.1181008119     0.07731050084
     0.1181852012      0.0773476924
     0.1182695906     0.07738472978
       0.11835398     0.07742165271
      0.118438145     0.07745841978
     0.1185223099     0.07749518858
     0.1186062504     0.07753190145
     0.1186901909     0.07756867488
      0.118773907     0.07760540058
     0.1188576231     0.07764215329
     0.1189413391     0.07767890609
     0.1190248301     0.07771555463
     0.1191083212     0.07775220958
     0.1191915871     0.07778878855
     0.1192748531     0.07782541502
     0.1193578941     0.07786201365
      0.119440935     0.07789869896
     0.1195237509     0.07793537487
     0.1196065668     0.07797213277
     0.1196891576     0.07800885394
     0.1197717485     0.07804561797
     0.1198541143     0.07808230277
     0.1199364801     0.07811899483
     0.1200186209     0.07815558447
     0.1201007616      0.0781921708
     0.1201826774     0.07822864684
     0.1202645931      0.0782568543
     0.1203462838     0.07828229429
     0.1204279744     0.07830690797
     0.1205094401     0.07833125518
     0.1205909057     0.07835563023
     0.1206723713      0.0783801412
     0.1207536113     0.07840479588
     0.1208348513     0.07842972288
     0.1209158656     0.07845489529
     0.1209968799     0.07848039885
     0.1210776685     0.07850614698
     0.1211584572     0.07853216338
     0.1212390201     0.07856647836
     0.1213195831      0.0785953545
     0.1213999204     0.07863060756
     0.1214802577     0.07866793259
     0.1215603693     0.07870580443
      0.121640481     0.07874389366
     0.1217203669     0.07878199789
     0.1218002529     0.07882024107
     0.1218799132     0.07884999941
     0.1219595735     0.07887718975
     0.1220392338     0.07890374885
     0.1221186678     0.07893021684
     0.1221981018     0.07895681487
     0.1222775358     0.07898350921
     0.1223567428     0.07901011936
     0.1224359499     0.07903660017
     0.1225151569     0.07906285084
     0.1225941364     0.07908874243
     0.1226731158     0.07912266193
     0.1227520952      0.0791591257
     0.1228308464     0.07919631512
     0.1229095976     0.07923388906
     0.1229883487     0.07927180303
     0.1230670999     0.07931011063
     0.1231456215      0.0793399543
     0.1232241431     0.07936735593
     0.1233026646     0.07939423925
     0.1233811862     0.07942117364
     0.1234597078     0.07944827147
     0.1235379977     0.07947542356
     0.1236162877     0.07950265693
     0.1236945776      0.0795299382
     0.1237728676     0.07955726667
     0.1238511575      0.0795846638
     0.1239292138     0.07961207146
       0.12400727     0.07963960342
     0.1240853263     0.07966727636
     0.1241631481     0.07969497448
     0.1242409699     0.07972273416
     0.1243187918     0.07975048366
     0.1243963785     0.07977805208
     0.1244739652     0.07980545327
      0.124551552     0.07983264587
     0.1246289029     0.07985952381
     0.1247062538     0.07988617836
     0.1247836047     0.07991265971
     0.1248607191     0.07993896513
     0.1249378334     0.07996524984
     0.1250149478     0.07999157134
     0.1250920621     0.08001796176
     0.1251689385      0.0800443568
     0.1252458148     0.08007083359
     0.1253226912     0.08009736776
     0.1253993288     0.08012385335
     0.1254759664     0.08015035319
      0.125552604     0.08017686154
     0.1256290021      0.0802032991
     0.1257054002     0.08022976071
     0.1257817983     0.08025625953
     0.1258579562     0.08028271948
     0.1259341141     0.08030921995
     0.1260102719     0.08033573883
     0.1260861888     0.08036215147
     0.1261621057      0.0803884904
     0.1262380225     0.08041470463
     0.1263136976     0.08044067639
     0.1263893727     0.08046649393
     0.1264650478     0.08049218199
     0.1265404803     0.08051770717
     0.1266159129     0.08054322467
     0.1266913454     0.08056880678
     0.1267665346     0.08059442534
     0.1268417238     0.08062019195
      0.126916913     0.08064609464
     0.1269918581     0.08067200771
     0.1270668032     0.08069794479
     0.1271417483     0.08072383387
     0.1272164485     0.08074952718
     0.1272911486     0.08077507019
     0.1273658488     0.08080045596
     0.1274403032     0.08082564105
     0.1275147577     0.08085079061
     0.1275892121     0.08087597636
       0.12766342     0.08090118261
     0.1277376279      0.0809265683
     0.1278118359     0.08095217191
     0.1278857964     0.08097789898
     0.1279597569      0.0810038315
     0.1280337175     0.08102994761
     0.1281074298     0.08105611505
     0.1281811422     0.08108237898
     0.1282548546     0.08110870734
     0.1283285669     0.08113508028
     0.1284020294     0.08116139576
     0.1284754919     0.08118773361
     0.1285489544     0.08121408407
     0.1286224169     0.08124043771
     0.1286956278     0.08126669625
     0.1287688387     0.08129294929
     0.1288420496     0.08132676323
     0.1289152605     0.08136219971
      0.128988218     0.08139907898
     0.1290611756     0.08143792923
     0.1291341332     0.08146832538
     0.1292070908      0.0814960921
     0.1292800483     0.08152316254
     0.1293527499     0.08155007559
     0.1294254515     0.08157710878
     0.1294981531     0.08160429097
     0.1295708547     0.08163159896
     0.1296435563     0.08165899763
     0.1297159991      0.0816863653
      0.129788442     0.08171379968
     0.1298608849     0.08174132605
     0.1299333277     0.08176899711
     0.1300057706     0.08180318319
     0.1300782134     0.08184192835
     0.1301503938     0.08187368126
     0.1302225742     0.08190342113
     0.1302947546     0.08193275033
      0.130366935     0.08196216809
     0.1304391154     0.08199178423
     0.1305112957     0.08202157097
     0.1305832098     0.08205134389