# Probe 0 (4.8 0.005 1.5)
#           Probe                 0
#            Time
    1.1999904e-06                 1
  2.639965056e-06                 1
  4.367944597e-06                 1
  6.441505713e-06                 1
   8.92973777e-06                 1
  1.191552707e-05                 1
  1.549838863e-05                 1
  1.979776087e-05                 1
  2.495674128e-05                 1
  3.114713435e-05                 1
  3.857523794e-05                 1
  4.748896225e-05                 1
  5.818543142e-05                 1
  7.102064463e-05                 1
  8.642131685e-05                 1
  0.0001049009832                 1
  0.0001270765827                 1
  0.0001536896689                 1
  0.0001856219625                 1
  0.0002239407148                 1
  0.0002699019884                 1
  0.0003250351347                 1
  0.0003911802278                 1
  0.0004705543394                 1
  0.0005658032734                 1
  0.0006799700095                 1
  0.0008169700928                 1
  0.0009814618316                 1
   0.001179117227                 1
   0.001416111804                 1
   0.001666544217                 1
   0.001916976631                 1
   0.002167409044                 1
   0.002417841458                 1
   0.002668273871                 1
   0.002918706284                 1
   0.003169138698                 1
   0.003419571111                 1
   0.003670003524                 1
   0.003920435938                 1
   0.004170868351                 1
   0.004421300765                 1
   0.004671733178                 1
   0.004922165591                 1
   0.005172598005                 1
   0.005423030418                 1
   0.005673462831                 1
   0.005923895245                 1
   0.006174327658                 1
   0.006424760072                 1
   0.006675192485                 1
   0.006925624898                 1
   0.007176057312                 1
   0.007426489725                 1
   0.007676922139                 1
   0.007927354552                 1
   0.008177786965                 1
   0.008428219379                 1
   0.008678651792                 1
   0.008929084205                 1
   0.009179516619                 1
   0.009429949032                 1
   0.009680381446                 1
   0.009930813859                 1
    0.01018124627                 1
    0.01043167869                 1
     0.0106821111                 1
    0.01093254351                 1
    0.01118297593                 1
    0.01143340834                 1
    0.01168384075                 1
    0.01193427317                 1
    0.01218470558                 1
    0.01243513799                 1
    0.01268557041                 1
    0.01293600282                 1
    0.01318643523                 1
    0.01343686765                 1
    0.01368730006                 1
    0.01393773247                 1
    0.01418816489                 1
     0.0144385973                 1
    0.01468902971                 1
    0.01493946213                 1
    0.01518989454                 1
    0.01544032695                 1
    0.01569075937                 1
    0.01594119178                 1
    0.01619162419                 1
    0.01644205661                 1
    0.01669248902                 1
    0.01694292143                 1
    0.01719335385                 1
    0.01744378626                 1
    0.01769421867                 1
    0.01794465109                 1
     0.0181950835                 1
    0.01844551591                 1
    0.01869594833                 1
    0.01894638074                 1
    0.01919681315                 1
    0.01944724557                 1
    0.01969767798                 1
    0.01994811039                 1
    0.02019854281                 1
    0.02044897522                 1
    0.02069940763                 1
    0.02094984005                 1
    0.02120027246                 1
    0.02145070487                 1
    0.02170113729                 1
     0.0219515697                 1
    0.02220200211                 1
    0.02245243453                 1
    0.02270286694                 1
    0.02295329935                 1
    0.02320373177                 1
    0.02345416418                 1
    0.02370459659                 1
    0.02395502901                 1
    0.02420546142                 1
    0.02445589384                 1
    0.02470632625                 1
    0.02495675866                 1
    0.02520719108                 1
    0.02545762349                 1
     0.0257080559                 1
    0.02595848832                 1
    0.02620892073                 1
    0.02645935314                 1
    0.02670978556                 1
    0.02696021797                 1
    0.02721065038                 1
     0.0274610828                 1
    0.02771151521                 1
    0.02796194762                 1
    0.02821238004                 1
    0.02846281245                 1
    0.02871324486                 1
    0.02896367728                 1
    0.02921410969                 1
     0.0294645421                 1
    0.02971497452                 1
    0.02996540693                 1
    0.03021583934                 1
    0.03046627176                 1
    0.03071670417                 1
    0.03096713658                 1
      0.031217569                 1
    0.03146800141                 1
    0.03171843382                 1
    0.03196886624                 1
    0.03221929865                 1
    0.03246973106                 1
    0.03272016348                 1
    0.03297059589                 1
     0.0332210283                 1
    0.03347146072                 1
    0.03372189313                 1
    0.03397232554                 1
    0.03422275796                 1
    0.03447319037                 1
    0.03472362278                 1
     0.0349740552                 1
    0.03522448761                 1
    0.03547492002                 1
    0.03572535244                 1
    0.03597578485                 1
    0.03622621726                 1
    0.03647664968                 1
    0.03672708209                 1
     0.0369775145                 1
    0.03722794692                 1
    0.03747837933                 1
    0.03772881174                 1
    0.03797924416                 1
    0.03822967657                 1
    0.03848010898                 1
     0.0387305414                 1
    0.03898097381                 1
    0.03923140622                 1
    0.03948183864                 1
    0.03973227105                 1
    0.03998270346                 1
    0.04023313588                 1
    0.04048356829                 1
     0.0407340007                 1
    0.04098443312                 1
    0.04123486553                 1
    0.04148529795                 1
    0.04173573036                 1
    0.04198616277                 1
    0.04223659519                 1
     0.0424870276                 1
    0.04273746001                 1
    0.04298789243                 1
    0.04323832484                 1
    0.04348875725                 1
    0.04373918967                 1
    0.04398962208                 1
    0.04424005449                 1
    0.04449048691                 1
    0.04474091932                 1
    0.04499135173                 1
    0.04524178415                 1
    0.04549221656                 1
    0.04574264897                 1
    0.04599308139                 1
     0.0462435138                 1
    0.04649394621                 1
    0.04674437863                 1
    0.04699481104                 1
    0.04724524345                 1
    0.04749567587                 1
    0.04774610828                 1
    0.04799654069                 1
    0.04824697311                 1
    0.04849740552                 1
    0.04874783793                 1
    0.04899827035                 1
    0.04924870276                 1
    0.04949913517                 1
    0.04974956759                 1
             0.05                 1
          0.05025                 1
           0.0505                 1
          0.05075                 1
            0.051                 1
          0.05125                 1
           0.0515                 1
          0.05175                 1
            0.052                 1
          0.05225                 1
           0.0525                 1
          0.05275                 1
            0.053                 1
          0.05325                 1
           0.0535                 1
          0.05375                 1
            0.054                 1
          0.05425                 1
           0.0545                 1
          0.05475                 1
            0.055                 1
          0.05525                 1
           0.0555                 1
          0.05575                 1
            0.056                 1
          0.05625                 1
           0.0565                 1
          0.05675                 1
            0.057                 1
          0.05725                 1
           0.0575                 1
          0.05775                 1
            0.058                 1
          0.05825                 1
           0.0585                 1
          0.05875                 1
            0.059                 1
          0.05925                 1
           0.0595                 1
          0.05975                 1
             0.06                 1
          0.06025                 1
           0.0605                 1
          0.06075                 1
            0.061                 1
          0.06125                 1
           0.0615                 1
          0.06175                 1
            0.062                 1
          0.06225                 1
           0.0625                 1
          0.06275                 1
            0.063                 1
          0.06325                 1
           0.0635                 1
          0.06375                 1
            0.064                 1
          0.06425                 1
           0.0645                 1
          0.06475                 1
            0.065                 1
          0.06525                 1
           0.0655                 1
          0.06575                 1
            0.066                 1
          0.06625                 1
           0.0665                 1
          0.06675                 1
            0.067                 1
          0.06725                 1
           0.0675      0.9999999999
          0.06775      0.9999999999
            0.068      0.9999999999
          0.06825      0.9999999999
           0.0685      0.9999999999
          0.06875      0.9999999999
            0.069      0.9999999999
          0.06925      0.9999999999
    0.06949798387      0.9999999999
         0.069742      0.9999999999
      0.069984064      0.9999999999
    0.07022419149      0.9999999998
    0.07046239796      0.9999999998
    0.07069869877      0.9999999998
    0.07093310918      0.9999999998
    0.07116751959      0.9999999998
     0.0714000396      0.9999999998
    0.07163068444      0.9999999997
    0.07186132928      0.9999999997
    0.07209009896      0.9999999997
    0.07231886864      0.9999999997
    0.07254576316      0.9999999996
    0.07277079789      0.9999999996
    0.07299583262      0.9999999996
    0.07321900755      0.9999999995
    0.07344033807      0.9999999995
    0.07366166859      0.9999999994
    0.07388115468      0.9999999994
    0.07409881173      0.9999999993
    0.07431646877      0.9999999993
    0.07453229676      0.9999999992
    0.07474812476      0.9999999991
     0.0749621237      0.9999999991
    0.07517430909       0.999999999
    0.07538649448      0.9999999989
    0.07559686633      0.9999999988
    0.07580723817      0.9999999987
    0.07601579646      0.9999999986
    0.07622255683      0.9999999985
    0.07642931721      0.9999999984
    0.07663427967      0.9999999983
    0.07683745985      0.9999999981
    0.07704064002       0.999999998
     0.0772438202      0.9999999978
    0.07744520232      0.9999999977
    0.07764658444      0.9999999975
    0.07784616851      0.9999999973
    0.07804575258      0.9999999971
    0.07824353859      0.9999999969
     0.0784413246      0.9999999967
    0.07863731256      0.9999999964
    0.07883330052      0.9999999962
    0.07902749042      0.9999999959
    0.07922168033      0.9999999956
    0.07941407218      0.9999999953
    0.07960646403      0.9999999949
    0.07979705782      0.9999999946
    0.07998765161      0.9999999942
    0.08017644735      0.9999999938
    0.08036524309      0.9999999934
    0.08055224078      0.9999999929
    0.08073745753      0.9999999925
    0.08092267429       0.999999992
    0.08110611011      0.9999999914
    0.08128954593      0.9999999909
    0.08147120083      0.9999999903
    0.08165285572      0.9999999896
    0.08183272969      0.9999999889
    0.08201260365      0.9999999882
    0.08219069668      0.9999999874
    0.08236702642      0.9999999866
    0.08254335615      0.9999999858
    0.08271792259      0.9999999849
    0.08289248903      0.9999999839
    0.08306529217      0.9999999829
    0.08323809531      0.9999999818
    0.08340913516      0.9999999807
      0.083580175      0.9999999795
    0.08375121484      0.9999999782
    0.08392047302      0.9999999768
     0.0840897312      0.9999999754
    0.08425898938      0.9999999739
    0.08442644694      0.9999999724
     0.0845939045      0.9999999707
    0.08476136206      0.9999999689
    0.08492699943      0.9999999671
     0.0850926368      0.9999999651
    0.08525827417       0.999999963
    0.08542391154      0.9999999608
    0.08558768781      0.9999999585
    0.08575146409      0.9999999561
    0.08591524036      0.9999999535
    0.08607901664      0.9999999508
    0.08624088853      0.9999999479
    0.08640276043      0.9999999449
    0.08656463233      0.9999999417
    0.08672650423      0.9999999383
    0.08688642587      0.9999999348
    0.08704634751       0.999999931
    0.08720626914       0.999999927
    0.08736421644      0.9999999229
    0.08752216373      0.9999999185
    0.08768011102      0.9999999139
    0.08783605899      0.9999999091
    0.08799200695       0.999999904
    0.08814795491      0.9999998986
    0.08830187757       0.999999893
    0.08845580024      0.9999998871
     0.0886097229      0.9999998809
    0.08876364556      0.9999998743
    0.08891548819      0.9999998674
    0.08906733082      0.9999998602
    0.08921917345      0.9999998527
    0.08936890715      0.9999998448
    0.08951864085      0.9999998365
    0.08966837455      0.9999998278
    0.08981810825      0.9999998186
     0.0899656719      0.9999998091
    0.09011323555      0.9999997991
     0.0902607992      0.9999997886
    0.09040836285      0.9999997775
     0.0905559265      0.9999997659
    0.09070121994      0.9999997538
    0.09084651337      0.9999997411
    0.09099180681      0.9999997278
    0.09113710025      0.9999997137
    0.09128239369       0.999999699
    0.09142530527      0.9999996837
    0.09156821685      0.9999996677
    0.09171112843      0.9999996508
    0.09185404001      0.9999996332
    0.09199695158      0.9999996146
    0.09213986316      0.9999995951
    0.09228022275      0.9999995751
    0.09242058234      0.9999995541
    0.09256094192       0.999999532
    0.09270130151      0.9999995089
    0.09284166109      0.9999994846
    0.09297932146      0.9999994597
    0.09311698182      0.9999994336
    0.09325464219      0.9999994063
    0.09339230255      0.9999993777
    0.09352996291      0.9999993477
    0.09366762328      0.9999993163
     0.0938023547      0.9999992842
    0.09393708612      0.9999992506
    0.09407181754      0.9999992155
    0.09420654895      0.9999991788
    0.09434128037      0.9999991405
    0.09447601179      0.9999991005
    0.09460753532      0.9999990597
    0.09473905885      0.9999990172
    0.09487058238      0.9999989729
    0.09500210591      0.9999989267
    0.09513362944      0.9999988785
    0.09526515297      0.9999988282
     0.0953966765      0.9999987757
    0.09552820002      0.9999987209
    0.09565596574      0.9999986655
    0.09578373145      0.9999986077
    0.09591149716      0.9999985476
    0.09603926288       0.999998485
    0.09616702859      0.9999984199
    0.09629479431      0.9999983521
    0.09642256002      0.9999982816
    0.09655032573      0.9999982083
    0.09667809145       0.999998132
    0.09680585716      0.9999980526
    0.09693362287      0.9999979701
    0.09706138859      0.9999978841
    0.09718383073      0.9999977985
    0.09730627287      0.9999977096
    0.09742871501      0.9999976172
    0.09755115716      0.9999975212
     0.0976735993      0.9999974215
    0.09779604144      0.9999973178
    0.09791848358      0.9999972102
    0.09804092572      0.9999970984
    0.09816336787      0.9999969823
    0.09828581001      0.9999968617
    0.09840825215      0.9999967366
    0.09853069429      0.9999966066
    0.09865313644      0.9999964717
    0.09877557858      0.9999963316
    0.09889802072      0.9999961862
    0.09902046286      0.9999960351
      0.099142905      0.9999958783
    0.09926534715      0.9999957154
    0.09938778929      0.9999955463
    0.09951023143      0.9999953707
    0.09963267357      0.9999951883
    0.09975511572      0.9999949989
    0.09987755786      0.9999948024
              0.1      0.9999945983
     0.1001184834      0.9999943935
     0.1002366861      0.9999941817
     0.1003546086      0.9999939628
     0.1004722517      0.9999937365
     0.1005898948      0.9999935021
     0.1007072585        0.99999326
     0.1008243434      0.9999930099
     0.1009411502      0.9999927517
     0.1010576795      0.9999924851
      0.101173932      0.9999922099
     0.1012899085       0.999991926
     0.1014056094      0.9999916331
     0.1015210355      0.9999913309
     0.1016359146        0.99999102
     0.1017505214      0.9999906994
     0.1018648566      0.9999903688
      0.101978921       0.999990028
      0.102092715      0.9999896766
     0.1022062394      0.9999893143
     0.1023194947      0.9999889409
     0.1024327501      0.9999885551
     0.1025457364      0.9999881574
     0.1026584544      0.9999877475
     0.1027709046      0.9999873252
     0.1028830877        0.99998689
     0.1029952709      0.9999864406
     0.1031071869      0.9999859778
     0.1032188364       0.999985501
     0.1033299556      0.9999850113
     0.1034408108      0.9999845071
     0.1035514027      0.9999839881
     0.1036617319      0.9999834539
     0.1037717991      0.9999829042
     0.1038813446      0.9999823399
     0.1039906305      0.9999817595
     0.1040996574      0.9999811624
      0.104208426      0.9999805483
     0.1043169368      0.9999799168
     0.1044251905      0.9999792675
     0.1045331877      0.9999785999
      0.104640929      0.9999779137
     0.1047484149      0.9999772083
     0.1048556462      0.9999764835
     0.1049626233      0.9999757387
      0.105069347      0.9999749736
     0.1051758177      0.9999741878
     0.1052822884      0.9999733788
     0.1053885063      0.9999725482
     0.1054944718      0.9999716956
     0.1056001857      0.9999708195
     0.1057056484      0.9999699211
     0.1058111112      0.9999689974
     0.1059163228      0.9999680497
     0.1060212839      0.9999670774
     0.1061259952      0.9999660786
     0.1062307064      0.9999650522
     0.1063351677      0.9999639992
     0.1064393797      0.9999629187
      0.106543343      0.9999618097
     0.1066470582      0.9999606699
     0.1067505258      0.9999595011
     0.1068539935      0.9999582987
     0.1069572136      0.9999570647
     0.1070601868      0.9999557982
     0.1071629136      0.9999544987
     0.1072653947      0.9999531638
     0.1073676305      0.9999517961
     0.1074696219      0.9999503944
     0.1075713692      0.9999489582
     0.1076728731      0.9999474869
     0.1077741342      0.9999459782
      0.107875153      0.9999444352
     0.1079759301      0.9999428564
     0.1080764662      0.9999412412
     0.1081770022      0.9999395845
     0.1082772972      0.9999378897
     0.1083773516      0.9999361556
     0.1084774061       0.999934377
       0.10857722       0.999932557
      0.108676794       0.999930693
     0.1087761286      0.9999287859
     0.1088752245       0.999926834
     0.1089740821      0.9999248356
     0.1090729397      0.9999227846
     0.1091715591      0.9999206828
     0.1092699409      0.9999185316
     0.1093680857      0.9999163292
     0.1094659939      0.9999140742
     0.1095636662      0.9999117638
     0.1096613385      0.9999093904
     0.1097587749      0.9999069622
     0.1098559759      0.9999044789
     0.1099529421      0.9999019388
     0.1100499084      0.9998993323
     0.1101466398      0.9998966681
     0.1102431371      0.9998939441
     0.1103396343      0.9998911504
     0.1104358973      0.9998882915
     0.1105319267      0.9998853736
      0.110627723      0.9998823937
     0.1107235193      0.9998793143
     0.1108190825      0.9998761886
     0.1109144132      0.9998730026
     0.1110097439      0.9998697089
     0.1111048421      0.9998663405
     0.1111997083      0.9998629295
     0.1112943432      0.9998594224
     0.1113889781      0.9998558185
     0.1114833815      0.9998521415
     0.1115775542       0.999848383
     0.1116717269      0.9998445432
     0.1117656687      0.9998406271
     0.1118593803      0.9998366608
     0.1119530919      0.9998325853
     0.1120465732      0.9998284143
     0.1121398249      0.9998242003
     0.1122330766      0.9998198971
     0.1123263282      0.9998154599
     0.1124193496      0.9998109689
     0.1125123711      0.9998063895
     0.1126051622      0.9998016733
     0.1126979534      0.9997968871
     0.1127905143      0.9997920075
     0.1128830752      0.9997870299
     0.1129754059      0.9997819168
     0.1130677365      0.9997767134
     0.1131600672      0.9997714085
      0.113252167      0.9997659947
     0.1133442668      0.9997604597
     0.1134361358      0.9997548282
     0.1135280048      0.9997490716
      0.113619643      0.9997431985
      0.113711051      0.9997372115
     0.1138024589      0.9997310931
     0.1138936366      0.9997248578
     0.1139845846      0.9997185152
     0.1140755326      0.9997120273
      0.114166251      0.9997054131
     0.1142567402      0.9996986714
     0.1143472295      0.9996917843
     0.1144374897      0.9996847726
     0.1145275213      0.9996775673
     0.1146173251      0.9996702026
     0.1147071288       0.999662741
     0.1147967046      0.9996550996
     0.1148862805      0.9996472792
     0.1149756283      0.9996393298
     0.1150647489      0.9996312259
     0.1151538694      0.9996229585
     0.1152427626      0.9996145418
     0.1153316558      0.9996059345
     0.1154203216      0.9995971796
     0.1155089875      0.9995882286
      0.115597426       0.999579109
     0.1156856377       0.999569821
     0.1157738494      0.9995603385
     0.1158618344      0.9995506841
     0.1159495932      0.9995408565
     0.1160371264      0.9995308547
     0.1161246595      0.9995206513
     0.1162119671      0.9995102725
     0.1162992747      0.9994996906
     0.1163863567      0.9994889322
     0.1164732136      0.9994779971
     0.1165600706      0.9994668564
     0.1166467025      0.9994555373
     0.1167333345      0.9994440085
     0.1168197414      0.9994322978
     0.1169061483      0.9994203718
     0.1169923302      0.9994082583
     0.1170782877      0.9993959543
     0.1171642452      0.9993834237
     0.1172499782       0.999370695
     0.1173357113      0.9993577303
     0.1174212199      0.9993445591
     0.1175065046      0.9993311776
     0.1175917894      0.9993175477
     0.1176768503      0.9993037022
     0.1177619112      0.9992896013
     0.1178467483      0.9992752791
     0.1179315854      0.9992606953
     0.1180161986      0.9992458843
     0.1181008119      0.9992308031
     0.1181852012      0.9992154875
     0.1182695906       0.999199893
       0.11835398      0.9991840151
      0.118438145      0.9991678917
     0.1185223099      0.9991514747
     0.1186062504      0.9991348021
     0.1186901909       0.999117823
      0.118773907      0.9991005765
     0.1188576231      0.9990830105
     0.1189413391      0.9990651194
     0.1190248301       0.999046946
     0.1191083212      0.9990284371
     0.1191915871      0.9990096385
     0.1192748531      0.9989904952
     0.1193578941      0.9989710556
      0.119440935      0.9989512799
     0.1195237509      0.9989312249
     0.1196065668      0.9989108207
     0.1196891576      0.9988901166
     0.1197717485      0.9988690529
     0.1198541143      0.9988476842
     0.1199364801      0.9988259493
     0.1200186209      0.9988039039
     0.1201007616      0.9987814832
     0.1201826774      0.9987587437
     0.1202645931       0.998735617
     0.1203462838      0.9987121602
     0.1204279744      0.9986882758
     0.1205094401      0.9986640408
     0.1205909057      0.9986393872
     0.1206723713      0.9986143395
     0.1207536113      0.9985889112
     0.1208348513      0.9985630404
     0.1209158656      0.9985368323
     0.1209968799       0.998510191
     0.1210776685      0.9984831462
     0.1211584572      0.9984556402
     0.1212390201      0.9984277915
     0.1213195831      0.9983994611
     0.1213999204      0.9983707439
     0.1214802577      0.9983415636
     0.1215603693      0.9983119998
      0.121640481       0.998281966
     0.1217203669      0.9982515415
     0.1218002529      0.9982206346
     0.1218799132      0.9981893251
     0.1219595735      0.9981575167
     0.1220392338      0.9981252478
     0.1221186678      0.9980925207
     0.1221981018      0.9980592557
     0.1222775358      0.9980254502
     0.1223567428      0.9979911964
     0.1224359499      0.9979563912
     0.1225151569       0.997921028
     0.1225941364      0.9978852048
     0.1226731158      0.9978488751
     0.1227520952      0.9978119351
     0.1228308464      0.9977745118
     0.1229095976      0.9977364998
     0.1229883487      0.9976978941
     0.1230670999       0.997658688
     0.1231456215      0.9976189889
     0.1232241431      0.9975786741
     0.1233026646      0.9975377325
     0.1233811862      0.9974961491
     0.1234597078      0.9974539151
     0.1235379977      0.9974111495
     0.1236162877       0.997367719
     0.1236945776      0.9973236938
     0.1237728676      0.9972789272
     0.1238511575      0.9972334492
     0.1239292138      0.9971874945
       0.12400727      0.9971407809
     0.1240853263      0.9970933459
     0.1241631481      0.9970453451
     0.1242409699      0.9969967351
     0.1243187918      0.9969473499
     0.1243963785      0.9968973785
     0.1244739652      0.9968466782
      0.124551552      0.9967952396
     0.1246289029       0.996743211
     0.1247062538      0.9966904239
     0.1247836047      0.9966369784
     0.1248607191      0.9965828351
     0.1249378334      0.9965278648
     0.1250149478      0.9964720629
     0.1250920621      0.9964154168
     0.1251689385      0.9963580861
     0.1252458148      0.9962998786
     0.1253226912      0.9962409095
     0.1253993288      0.9961812657
     0.1254759664      0.9961205866
      0.125552604      0.9960589374
     0.1256290021      0.9959965272
     0.1257054002      0.9959331601
     0.1257817983      0.9958689775
     0.1258579562      0.9958039259
     0.1259341141      0.9957378654
     0.1260102719      0.9956709729
     0.1260861888      0.9956033625
     0.1261621057      0.9955346212
     0.1262380225      0.9954650088
     0.1263136976      0.9953946682
     0.1263893727      0.9953233583
     0.1264650478       0.995250894
     0.1265404803      0.9951778003
     0.1266159129      0.9951037619
     0.1266913454      0.9950287486
     0.1267665346      0.9949529892
     0.1268417238      0.9948762277
      0.126916913      0.9947984638
     0.1269918581      0.9947199223
     0.1270668032      0.9946403215
     0.1271417483      0.9945596408
     0.1272164485      0.9944779217
     0.1272911486      0.9943952366
     0.1273658488      0.9943114799
     0.1274403032      0.9942266648
     0.1275147577      0.9941406375
     0.1275892121      0.9940534286
       0.12766342      0.9939653327
     0.1277376279      0.9938760526
     0.1278118359      0.9937855746
     0.1278857964      0.9936941908
     0.1279597569      0.9936015848
     0.1280337175      0.9935077386
     0.1281074298      0.9934129537
     0.1281811422      0.9933168957
     0.1282548546       0.993219541
     0.1283285669      0.9931208635
     0.1284020294       0.993021171
     0.1284754919      0.9929200989
     0.1285489544      0.9928176149
     0.1286224169      0.9927137749
     0.1286956278      0.9926089537
     0.1287688387       0.992502794
     0.1288420496      0.9923952859
     0.1289152605      0.9922864173
      0.128988218      0.9921765579
     0.1290611756      0.9920653188
     0.1291341332      0.9919526839
     0.1292070908      0.9918386363
     0.1292800483      0.9917231578
     0.1293527499      0.9916066422
     0.1294254515      0.9914886669
     0.1294981531      0.9913692113
     0.1295708547      0.9912482547
     0.1296435563      0.9911257764
     0.1297159991      0.9910021998
      0.129788442      0.9908770715
     0.1298608849       0.990750376
     0.1299333277      0.9906220915
     0.1300057706      0.9904921985
     0.1300782134      0.9903606786
     0.1301503938      0.9902279998
     0.1302225742      0.9900936719
     0.1302947546      0.9899576788
      0.130366935      0.9898200048
     0.1304391154      0.9896806342
     0.1305112957      0.9895395509
     0.1305832098      0.9893972686