# Probe 0 (3.4 0.005 1.5)
# Probe 1 (4.4 0.005 1.5)
# Probe 2 (5.4 0.005 1.5)
# Probe 3 (5.9 0.005 1.5)
# Probe 4 (6.2 0.005 1.5)
# Probe 5 (6.7 0.005 1.5)
# Probe 6 (8.2 0.005 1.5)
#           Probe                 0                 1                 2                 3                 4                 5                 6
#            Time
    1.1999904e-06     0.09999960001     0.09999960001     0.09999960001     0.09999960001     0.09999960001     0.09999960001     0.09999960001
  2.639965056e-06     0.09999912003     0.09999912003     0.09999912003     0.09999912003     0.09999912003     0.09999912003     0.09999912003
  4.367944597e-06     0.09999854405     0.09999854405     0.09999854405     0.09999854405     0.09999854405     0.09999854405     0.09999854405
  6.441505713e-06      0.0999978529      0.0999978529      0.0999978529      0.0999978529      0.0999978529      0.0999978529      0.0999978529
   8.92973777e-06     0.09999702355     0.09999702355     0.09999702355     0.09999702355     0.09999702355     0.09999702355     0.09999702355
  1.191552707e-05     0.09999602839     0.09999602839     0.09999602839     0.09999602839     0.09999602839     0.09999602839     0.09999602839
  1.549838863e-05     0.09999483426     0.09999483426     0.09999483426     0.09999483426     0.09999483426     0.09999483426     0.09999483426
  1.979776087e-05     0.09999340138     0.09999340138     0.09999340138     0.09999340138     0.09999340138     0.09999340138     0.09999340138
  2.495674128e-05     0.09999168209     0.09999168209     0.09999168209     0.09999168209     0.09999168209     0.09999168209     0.09999168209
  3.114713435e-05     0.09998961917     0.09998961917     0.09998961917     0.09998961917     0.09998961917     0.09998961917     0.09998961917
  3.857523794e-05     0.09998714396     0.09998714396     0.09998714396     0.09998714396     0.09998714396     0.09998714396     0.09998714396
  4.748896225e-05     0.09998417393     0.09998417393     0.09998417393     0.09998417393     0.09998417393     0.09998417393     0.09998417393
  5.818543142e-05     0.09998061023     0.09998061023     0.09998061023     0.09998061023     0.09998061023     0.09998061023     0.09998061023
  7.102064463e-05     0.09997633445     0.09997633445     0.09997633445     0.09997633445     0.09997633445     0.09997633445     0.09997633445
  8.642131685e-05     0.09997120472     0.09997120472     0.09997120472     0.09997120472     0.09997120472     0.09997120472     0.09997120472
  0.0001049009832     0.09996505043     0.09996505041     0.09996505041     0.09996505041     0.09996505041     0.09996505041     0.09996505041
  0.0001270765827      0.0999576667     0.09995766666     0.09995766666     0.09995766666     0.09995766666     0.09995766666     0.09995766666
  0.0001536896689     0.09994880752     0.09994880742     0.09994880742     0.09994880742     0.09994880742     0.09994880742     0.09994880742
  0.0001856219625     0.09993818066     0.09993818041     0.09993818041     0.09993818041     0.09993818041     0.09993818041     0.09993818041
  0.0002239407148     0.09992543287     0.09992543223     0.09992543223     0.09992543223     0.09992543223     0.09992543223     0.09992543223
  0.0002699019884     0.09991014919     0.09991014756     0.09991014757     0.09991014757     0.09991014757     0.09991014757     0.09991014757
  0.0003250351347     0.09989182559      0.0998918215      0.0998918215      0.0998918215      0.0998918215      0.0998918215      0.0998918215
  0.0003911802278     0.09986985791     0.09986984769      0.0998698477      0.0998698477      0.0998698477      0.0998698477      0.0998698477
  0.0004705543394     0.09984352257     0.09984349723     0.09984349724     0.09984349724     0.09984349724     0.09984349724     0.09984349724
  0.0005658032734     0.09981196496     0.09981190272     0.09981190273     0.09981190274     0.09981190274     0.09981190274     0.09981190274
  0.0006799700095     0.09977422107     0.09977407047     0.09977407047     0.09977407049     0.09977407049     0.09977407049     0.09977407049
  0.0008169700928     0.09972908274     0.09972872548     0.09972872544     0.09972872549     0.09972872549     0.09972872549     0.09972872549
  0.0009814618316     0.09967518137     0.09967435841     0.09967435827     0.09967435838     0.09967435838     0.09967435838     0.09967435838
   0.001179117227     0.09961095604     0.09960914153     0.09960914106     0.09960914131     0.09960914132     0.09960914132     0.09960914132
   0.001416111804     0.09953484982     0.09953110454     0.09953110306      0.0995311036     0.09953110362     0.09953110362     0.09953110362
   0.001666544217     0.09945543535     0.09944883298     0.09944882868     0.09944882974     0.09944882978     0.09944882978     0.09944882978
   0.001916976631     0.09937681712     0.09936675755     0.09936674637     0.09936674821     0.09936674829      0.0993667483      0.0993667483
   0.002167409044     0.09929856542     0.09928488251      0.0992848558     0.09928485873      0.0992848589     0.09928485892     0.09928485892
   0.002417841458     0.09922010794     0.09920321508     0.09920315619     0.09920316054     0.09920316087     0.09920316091     0.09920316092
   0.002668273871     0.09914088681     0.09912176693     0.09912164676     0.09912165285     0.09912165344     0.09912165354     0.09912165354
   0.002918706284     0.09906050389     0.09904055474      0.0990403268     0.09904033488     0.09904033587     0.09904033607     0.09904033607
   0.003169138698     0.09897881157     0.09895960095     0.09895919638     0.09895920655     0.09895920812     0.09895920847     0.09895920849
   0.003419571111     0.09889593082     0.09887892991     0.09887825365     0.09887826561     0.09887826799     0.09887826861     0.09887826865
   0.003670003524     0.09881223723     0.09879856942     0.09879749913     0.09879751199     0.09879751541     0.09879751647     0.09879751655
   0.003920435938     0.09872821555      0.0987185437     0.09871693313     0.09871694494     0.09871694962     0.09871695131     0.09871695146
   0.004170868351     0.09864433028     0.09863886884     0.09863655644     0.09863656378     0.09863656982      0.0986365724     0.09863657267
   0.004421300765     0.09856095044      0.0985595469     0.09855637023     0.09855636798     0.09855637525     0.09855637902     0.09855637947
   0.004671733178     0.09847836195     0.09848056077      0.0984763771     0.09847635838     0.09847636633     0.09847637158     0.09847637234
   0.004922165591       0.098396758     0.09840186379     0.09839657719     0.09839653257     0.09839654008     0.09839654701     0.09839654822
   0.005172598005     0.09831617678     0.09832338255     0.09831697501     0.09831689198     0.09831689713     0.09831690575     0.09831690759
   0.005423030418     0.09823647637     0.09824501389     0.09823757542     0.09823743712     0.09823743712     0.09823744704     0.09823744976
   0.005673462831     0.09815742216     0.09816663576     0.09815838526     0.09815816864     0.09815815992     0.09815817019     0.09815817404
   0.005923895245     0.09807881311     0.09808812469     0.09807941249     0.09807908751     0.09807906565     0.09807907451     0.09807907973
   0.006174327658     0.09800052976     0.09800937976     0.09800066618     0.09800019471     0.09800015469      0.0980001594     0.09800016616
   0.006424760072     0.09792254748     0.09793034715     0.09792215582     0.09792149208     0.09792142752     0.09792142433     0.09792143264
   0.006675192485     0.09784490383     0.09785103795     0.09784389039     0.09784298248     0.09784288442     0.09784286892     0.09784287849
   0.006925624898      0.0977676456     0.09777153409     0.09776587674     0.09776466973     0.09776452611     0.09776449291     0.09776450305
   0.007176057312     0.09769078593      0.0976919816     0.09768811764     0.09768655875     0.09768635372     0.09768629624     0.09768630564
   0.007426489725     0.09761429938     0.09761257397     0.09761061151     0.09760865725     0.09760837105     0.09760828085     0.09760828749
   0.007676922139     0.09753811975      0.0975335133     0.09753334273     0.09753096785     0.09753057726     0.09753044306     0.09753044413
   0.007927354552     0.09746217242     0.09745499171     0.09745629131     0.09745349905     0.09745297806     0.09745278497      0.0974527768
   0.008177786965      0.0973863891     0.09737715379      0.0973794205     0.09737625278     0.09737557396     0.09737530278     0.09737528072
   0.008428219379     0.09731067611     0.09730009434     0.09730270092     0.09729924566     0.09729838256     0.09729800947     0.09729796754
   0.008678651792     0.09723487158     0.09722381128     0.09722607398     0.09722246696     0.09722139743     0.09722089402      0.0972208243
   0.008929084205     0.09715881993     0.09714825554     0.09714949987     0.09714591807     0.09714462848     0.09714396244     0.09714385445
   0.009179516619     0.09708240309     0.09707332158     0.09707294573     0.09706959095     0.09706808079     0.09706721728     0.09706705732
   0.009429949032     0.09700556214     0.09699886101     0.09699639813     0.09699347142     0.09699175773     0.09699066179     0.09699043229
   0.009680381446     0.09692831136     0.09692469111     0.09691986842     0.09691753923     0.09691565996     0.09691429974     0.09691397873
   0.009930813859     0.09685074483     0.09685060422     0.09684339367     0.09684176911     0.09683978438     0.09683813542     0.09683769604
    0.01018124627     0.09677301554     0.09677638202     0.09676703511      0.0967661331     0.09676412327      0.0967621733     0.09676158366
    0.01043167869     0.09669532581     0.09670181854      0.0966908712     0.09669060429     0.09668866373     0.09668641768     0.09668564106
     0.0106821111     0.09661790618     0.09662674774     0.09661498531      0.0966151609      0.0966133876     0.09661087214      0.0966098678
    0.01093254351     0.09654098871     0.09655107106      0.0965394491     0.09653978987     0.09653827234      0.0965355389     0.09653426349
    0.01118297593     0.09646477751     0.09647477714     0.09646430322     0.09646448982     0.09646329289     0.09646041814     0.09645882781
    0.01143340834     0.09638941947     0.09639796293     0.09638954449     0.09638927217     0.09638842458     0.09638550725     0.09638356048
    0.01168384075     0.09631498993     0.09632082963     0.09631511964     0.09631415952     0.09631364639     0.09631080033     0.09630846125
    0.01193427317     0.09624146864     0.09624364677      0.0962409268     0.09623918095     0.09623894399     0.09623628755      0.0962335299
    0.01218470558     0.09616874011     0.09616673206     0.09616683069     0.09616436815     0.09616431467     0.09616195796     0.09615876941
    0.01243513799     0.09609659407     0.09609039218     0.09609267411     0.09608973601     0.09608975533     0.09608778788     0.09608417395
    0.01268557041     0.09602477682      0.0960148905     0.09601832022     0.09601529353     0.09601527905     0.09601375997     0.09600974713
    0.01293600282     0.09595303499     0.09594039367     0.09594367095     0.09594102656     0.09594090008     0.09593985253     0.09593548978
    0.01318643523     0.09588116457     0.09586695405      0.0958686959     0.09586690032     0.09586663311     0.09586604427     0.09586140305
    0.01343686765      0.0958090307     0.09579450997     0.09579344924     0.09579286566     0.09579248865     0.09579231617      0.0957874884
    0.01368730006     0.09573657932     0.09572291226     0.09571807256     0.09571886871      0.0957184694     0.09571865301      0.0957137476
    0.01393773247     0.09566383788     0.09565196182     0.09564278228     0.09564486384     0.09564456919     0.09564504468     0.09564018272
    0.01418816489     0.09559090335      0.0955814381     0.09556784268     0.09557083039     0.09557077548     0.09557148671     0.09556679604
     0.0144385973     0.09551792364     0.09551112136     0.09549352543     0.09549678158     0.09549707529     0.09549798054     0.09549358996
    0.01468902971     0.09544506701     0.09544079602      0.0954200623     0.09542277645     0.09542346098      0.0954245332     0.09542056683
    0.01493946213     0.09537247543     0.09537027454     0.09534759647     0.09534891699     0.09534993509     0.09535115675     0.09534772872
    0.01518989454     0.09530021952     0.09529941663     0.09527615122     0.09527533918     0.09527652186     0.09527786798     0.09527507709
    0.01544032695     0.09522826478     0.09522814752     0.09520561048      0.0952021929     0.09520326979     0.09520468819     0.09520261243
    0.01569075937     0.09515645211     0.09515647136     0.09513573815     0.09512961649     0.09513025022     0.09513164316     0.09513033377
    0.01594119178     0.09508452368     0.09508446167      0.0950662235     0.09505771149      0.0950575511     0.09505876214      0.0950582382
    0.01619162419      0.0950121948     0.09501221253     0.09499672832      0.0949865168     0.09498526383     0.09498607621     0.09498632037
    0.01644205661      0.0949392436     0.09493981928     0.09492694205      0.0949159926     0.09491346702     0.09491362085     0.09491457214
    0.01669248902     0.09486558143     0.09486736341       0.094856638     0.09484601961     0.09484221069     0.09484143384     0.09484298235
    0.01694292143      0.0947912823     0.09479548166     0.09478589035     0.09477641956      0.0947715022     0.09476955181     0.09477153685
    0.01719335385     0.09471657633     0.09472441914     0.09471472608     0.09470696992     0.09470129681     0.09469800841     0.09470021895
    0.01744378626     0.09464181413     0.09465362084     0.09464341546      0.0946374372     0.09463150013     0.09462682972      0.0946290102
    0.01769421867     0.09456740601     0.09458254899     0.09457227174     0.09456761667     0.09456196927     0.09455602938     0.09455789188
    0.01794465109     0.09449374676     0.09451103102     0.09450143038     0.09449737614     0.09449253454     0.09448560367     0.09448684668
     0.0181950835     0.09442114606     0.09443875353      0.0944308054     0.09442667748     0.09442301434       0.094415528     0.09441586076
    0.01844551591     0.09434978747     0.09436560054     0.09436011018     0.09435559071     0.09435324393     0.09434575565     0.09434492571
    0.01869594833     0.09427971647     0.09429177047     0.09428894521     0.09428427688     0.09428311247     0.09427621914     0.09427404022
    0.01894638074     0.09421084273      0.0942177037     0.09421694784     0.09421293915     0.09421258667     0.09420683414     0.09420321133
    0.01919681315     0.09414295639     0.09414395958     0.09414395903      0.0941417663     0.09414172568     0.09413751065     0.09413245972
    0.01944724557     0.09407574026      0.0940710756     0.09407012485     0.09407085528     0.09407065354     0.09406814373     0.09406180036
    0.01969767798     0.09400885525     0.09399948498     0.09399592801     0.09400020847      0.0939995586     0.09399865473     0.09399127009
    0.01994811039     0.09394199861     0.09392942799     0.09392201964     0.09392971887     0.09392862989     0.09392898628     0.09392090642
    0.02019854281      0.0938749504     0.09386093442     0.09384905454     0.09385921835     0.09385801588     0.09385911965     0.09385074928
    0.02044897522     0.09380758765     0.09379383465     0.09377758009     0.09378854807     0.09378778737     0.09378908192     0.09378083677
    0.02069940763     0.09373987257      0.0937278158     0.09370793166     0.09371763793     0.09371792114     0.09371894559      0.0937112004
    0.02094984005      0.0936718199      0.0936624909     0.09364014511       0.093646568     0.09364831259     0.09364881805      0.0936418609
    0.02120027246     0.09360345438     0.09359746555      0.0935739398     0.09357558029     0.09357881899     0.09357882257     0.09357282585
    0.02145070487     0.09353477924     0.09353238141     0.09350881464     0.09350502747     0.09350931918     0.09350907568     0.09350408929
    0.02170113729     0.09346576903     0.09346693353      0.0934441601     0.09343528615     0.09343976766     0.09343966363     0.09343563255
     0.0219515697     0.09339638608     0.09340088616     0.09337934557     0.09336665705     0.09337022441     0.09337062547     0.09336742577
    0.02220200211     0.09332660746     0.09333408847     0.09331382988     0.09329926616     0.09330085541     0.09330194619     0.09329942987
    0.02245243453     0.09325645337     0.09326649504     0.09324726168      0.0932330034     0.09323189636     0.09323356496     0.09323159872
    0.02270286694     0.09318600836     0.09319816705     0.09317952846     0.09316754348     0.09316357422     0.09316539594     0.09316388231
    0.02295329935     0.09311543167     0.09312921114     0.09311074412     0.09310241778     0.09309602451     0.09309735589     0.09309623101
    0.02320373177      0.0930449527     0.09305979638     0.09304121227      0.0930370984     0.09302924245     0.09302938888      0.0930286007
    0.02345416418     0.09297484921     0.09299012633      0.0929713483     0.09297111289     0.09296307135     0.09296148239     0.09296095804
    0.02370459659     0.09290541237       0.092920409      0.0929015851      0.0929041526     0.09289722118     0.09289366951     0.09289328501
    0.02395502901     0.09283690402     0.09285083375     0.09283227866     0.09283614175     0.09283132773     0.09282601242     0.09282558173
    0.02420546142     0.09276951661     0.09278155771     0.09276364147     0.09276724536     0.09276504539     0.09275857584     0.09275786723
    0.02445589384     0.09270334421     0.09271275032     0.09269572746     0.09269781886     0.09269813771      0.0926914015     0.09269017775
    0.02470632625     0.09263836737     0.09264461725      0.0926284569     0.09262831675     0.09263053663     0.09262449032     0.09262256312
    0.02495675866     0.09257444652     0.09257731545     0.09256166571     0.09255918526     0.09256235429     0.09255779738     0.09255508133
    0.02520719108     0.09251132753     0.09251093651     0.09249516981     0.09249077266     0.09249384943     0.09249124298     0.09248779203
    0.02545762349     0.09244866833     0.09244549386      0.0924288223     0.09242326221     0.09242536297     0.09242473771     0.09242074922
     0.0257080559     0.09238609658     0.09238091025     0.09236254622     0.09235665402     0.09235723494     0.09235821046     0.09235399364
    0.02595848832     0.09232326458      0.0923170283     0.09229633912     0.09229079382     0.09228972709     0.09229162663     0.09228754619
    0.02620892073     0.09225983154     0.09225363491     0.09223025362       0.092225435     0.09222296928     0.09222499511     0.09222140331
    0.02645935314      0.0921955126     0.09219049428     0.09216436274      0.0921603144     0.09215694316      0.0921583665     0.09215553536
    0.02670978556     0.09213013803     0.09212736528     0.09209872336      0.0920952232     0.09209150792     0.09209181714     0.09208988876
    0.02696021797     0.09206368269     0.09206401512     0.09203335144     0.09203004888     0.09202645557     0.09202543094     0.09202439198
    0.02721065038     0.09199627962     0.09200024168      0.0919682146     0.09196477908     0.09196157383     0.09195927783     0.09195896479
     0.0274610828     0.09192819736     0.09193589327     0.09190324337     0.09189947514     0.09189669947     0.09189340057     0.09189353001
    0.02771151521     0.09185978873     0.09187088483     0.09183835752     0.09183423019     0.09183175049     0.09182781223     0.09182802633
    0.02796194762     0.09179142402     0.09180520009     0.09177349091     0.09176912583     0.09176673221     0.09176250154     0.09176241989
    0.02821238004     0.09172342553     0.09173887882     0.09170860365     0.09170419969     0.09170171717     0.09169744319     0.09169671226
    0.02846281245     0.09165601955     0.09167201878     0.09164368139     0.09163943416     0.09163680639     0.09163260977     0.09163094263
    0.02871324486     0.09158931404     0.09160477172     0.09157872476     0.09157476798     0.09157208651     0.09156798087     0.09156518326
    0.02896367728      0.0915233032     0.09153733706     0.09151373253     0.09151012319     0.09150759602     0.09150354598     0.09149952896
    0.02921410969     0.09145789109     0.09146994894     0.09144868743     0.09144543499     0.09144331061     0.09143930053     0.09143408281
     0.0294645421     0.09139292742     0.09140285577     0.09138355392     0.09138067286     0.09137915081     0.09137523757     0.09136893956
    0.02971497452     0.09132824546     0.09133629425     0.09131828977     0.09131584655     0.09131500749     0.09131133925      0.0913041695
    0.02996540693     0.09126369476     0.09127046257     0.09125286675     0.09125099704     0.09125077622     0.09124757099     0.09123980648
    0.03021583934     0.09119916401     0.09120549969     0.09118729177     0.09118617695     0.09118638907      0.0911838807     0.09117584268
    0.03046627176     0.09113459844     0.09114147112     0.09112162819     0.09112143635     0.09112184138      0.0911202111     0.09111223839
    0.03071670417     0.09106997622     0.09107834717     0.09105596728      0.0910567793     0.09105716319     0.09105648114     0.09104890263
    0.03096713658     0.09100533881     0.09101608457     0.09099046035      0.0909922066     0.09099244655     0.09099264275     0.09098574872
      0.031217569     0.09094075559     0.09095457708     0.09092526679      0.0909276983     0.09092778862     0.09092866437     0.09092268021
    0.03146800141     0.09087631628     0.09089366725      0.0908605356     0.09086324042     0.09086327171     0.09086454677     0.09085961269
    0.03171843382     0.09081211556     0.09083316724     0.09079638353     0.09079884356     0.09079894564     0.09080032548     0.09079648609
    0.03196886624     0.09074823716      0.0907728798     0.09073288267     0.09073455312     0.09073482431      0.0907360665     0.09073327274
    0.03221929865     0.09068474015      0.0907126165     0.09067005803     0.09067044716     0.09067089615     0.09067185544     0.09066998018
    0.03246973106     0.09062164807     0.09065221328     0.09060789444     0.09060662368     0.09060714395      0.0906077829     0.09060664819
    0.03272016348     0.09055894686     0.09059154365     0.09054634741     0.09054318227      0.0905435655      0.0905439294      0.0905433407
    0.03297059589     0.09049658996     0.09053053089     0.09048534983      0.0904802053      0.0904801866     0.09048035312     0.09048013434
     0.0332210283     0.09043451176     0.09046915471     0.09042481011     0.09041774392     0.09041706215     0.09041708324     0.09041710466
    0.03347146072     0.09037264414     0.09040744301     0.09036460586     0.09035581149     0.09035426523     0.09035411998      0.0903543122
    0.03372189313     0.09031093211     0.09034545041     0.09030458054     0.09029438396     0.09029186787     0.09029144109     0.09029179146
    0.03397232554     0.09024934452     0.09028324083      0.0902445487     0.09023340425     0.09022992052     0.09022901323      0.0902295448
    0.03422275796     0.09018786957     0.09022087461      0.0901843113     0.09017278751     0.09016843656     0.09016680463      0.0901675427
    0.03447319037     0.09012650282     0.09015840151     0.09012367969     0.09011242637     0.09010738567     0.09010479564     0.09010572994
    0.03472362278     0.09006523235       0.090095873     0.09006250305     0.09005219614     0.09004669643      0.0900429842     0.09004403588
     0.0349740552     0.09000402595     0.09003333939     0.09000069361     0.08999196104     0.08998626697     0.08998138477     0.08998238798
    0.03522448761     0.08994282632     0.08997084258     0.08993824288     0.08993158341     0.08992597963     0.08992002128     0.08992072551
    0.03547492002       0.089881559     0.08990841308     0.08987522578     0.08987093659     0.08986571511     0.08985891624     0.08985901069
    0.03572535244     0.08982015362     0.08984607949     0.08981179238     0.08980992076     0.08980536378     0.08979807893     0.08979723482
    0.03597578485     0.08975856822     0.08978388309     0.08974814984     0.08974847889     0.08974483421     0.08973749562     0.08973541857
    0.03622621726     0.08969680827     0.08972187972     0.08968453728     0.08968660871      0.0896840602     0.08967712485     0.08967360674
    0.03647664968     0.08963493404     0.08966013434     0.08962119598     0.08962436813     0.08962300592     0.08961689919     0.08961185953
    0.03672708209     0.08957305572     0.08959871267     0.08955833755      0.0895618719     0.08956166958     0.08955673332     0.08955024185
     0.0369775145     0.08951131646     0.08953766899     0.08949611307     0.08949927991     0.08950008532     0.08949653676     0.08948881269
    0.03722794692     0.08944986455     0.08947703558      0.0894345883     0.08943677807     0.08943832272     0.08943622872     0.08942761668
    0.03747837933     0.08938882193     0.08941681877     0.08937373158     0.08937455383     0.08937648202     0.08937575233     0.08936667936
    0.03772881174      0.0893282537      0.0893570068      0.0893134215     0.08931276956      0.0893146849     0.08931508558     0.08930600645
    0.03797924416     0.08926814683     0.08929758402     0.08925347695     0.08925153738     0.08925306061     0.08925424665     0.08924558628
    0.03822967657     0.08920840911     0.08923854483     0.08919370407     0.08919089985     0.08919172898     0.08919329188     0.08918539447
    0.03848010898     0.08914888969     0.08917989763     0.08913394569     0.08913082136     0.08913078284     0.08913230701     0.08912539955
     0.0387305414     0.08908941388     0.08912165104     0.08907411786     0.08907119446     0.08907027266     0.08907139339     0.08906556881
    0.03898097381     0.08902983293      0.0890637893      0.0890142217     0.08901186085     0.08901019751      0.0890106515     0.08900587284
    0.03923140622     0.08897006186     0.08900625197     0.08895432705     0.08895264404     0.08895050461      0.0889501652     0.08894628827
    0.03948183864     0.08891006874     0.08894892477     0.08889453538     0.08889338612     0.08889109914     0.08888998937     0.08888679872
    0.03973227105     0.08884986637     0.08889164808     0.08883493775     0.08883397964     0.08883186295     0.08883014286     0.08882739451
    0.03998270346     0.08878948442     0.08883424284     0.08877558463     0.08877438652     0.08877267815     0.08877060797     0.08876807168
    0.04023313588     0.08872895834     0.08877654483      0.0887164769     0.08871463973     0.08871345045     0.08871133613     0.08870883022
    0.04048356829     0.08866834884     0.08871843468     0.08865757707     0.08865482835     0.08865412735     0.08865225833     0.08864967222
     0.0407340007     0.08860775358     0.08865985776     0.08859883165     0.08859507114     0.08859470686     0.08859329799     0.08859060037
    0.04098443312      0.0885472933      0.0886008232     0.08854019207     0.08853548688     0.08853523413     0.08853438386     0.08853161728
    0.04123486553     0.08848709817     0.08854138058     0.08848162512     0.08847616977     0.08847578739     0.08847546113     0.08847272516
    0.04148529795     0.08842727999     0.08848161452     0.08842311088     0.08841717492     0.08841645763     0.08841649865     0.08841392599
    0.04173573036     0.08836788781     0.08842164791     0.08836463328      0.0883585149     0.08835732746     0.08835749172     0.08835522169
    0.04198616277     0.08830889469     0.08836164602     0.08830617139     0.08830016526     0.08829845464     0.08829846056     0.08829661418
    0.04223659519     0.08825020182     0.08830180421     0.08824769867     0.08824207478     0.08823986328     0.08823944528     0.08823810539
     0.0424870276     0.08819168306     0.08824233423     0.08818919173     0.08818417691     0.08818154362     0.08818049858     0.08817969723
    0.04273746001     0.08813314271     0.08818344725     0.08813064408     0.08812640045     0.08812345916      0.0881216775     0.08812139139
    0.04298789243     0.08807442737     0.08812531243     0.08807207722     0.08806867876     0.08806555828     0.08806303512     0.08806318895
    0.04323832484     0.08801544254     0.08806801537     0.08801354219     0.08801095784     0.08800778661     0.08800461354     0.08800508979
    0.04348875725     0.08795605479     0.08801154253     0.08795510941      0.0879532031      0.0879500977     0.08794643895     0.08794709189
    0.04373918967     0.08789626091     0.08795576824     0.08789685092     0.08789540447     0.08789246019     0.08788851941     0.08788919069
    0.04398962208     0.08783615141     0.08790048109     0.08783882271     0.08783757796     0.08783486154     0.08783084546     0.08783137869
    0.04424005449     0.08777578992     0.08784542715     0.08778105406      0.0877797624     0.08777730828     0.08777339353     0.08777364565
    0.04449048691     0.08771541988     0.08779035644     0.08772354715     0.08772201095     0.08771982305     0.08771613136     0.08771597956
    0.04474091932     0.08765519639     0.08773505894      0.0876662863     0.08766437902     0.08766243874     0.08765902464     0.08765836832
    0.04499135173     0.08759555615     0.08767938437     0.08760925127     0.08760691195     0.08760519018     0.08760204338     0.08760080213
    0.04524178415     0.08753657756      0.0876232497     0.08755242662     0.08754963625      0.0875481046     0.08754516673     0.08754327603