# Region type :   patch explosionChamber
# Faces           : 37875
# Area            : 9.6770513364e+01
# Scale factor    : 1.0000000000e+00
# Time            	min(T)
1.19999040008e-06 	2.9314999947e+02
2.63996505619e-06 	2.9314999883e+02
4.36794459704e-06 	2.9314999806e+02
6.44150571252e-06 	2.9314999714e+02
8.92973776977e-06 	2.9314999604e+02
1.19155270705e-05 	2.9314999471e+02
1.54983886296e-05 	2.9314999311e+02
1.97977608653e-05 	2.9314999118e+02
2.49567412781e-05 	2.9314998885e+02
3.11471343486e-05 	2.9314998604e+02
3.8575237941e-05  	2.9314998263e+02
4.74889622518e-05 	2.9314997846e+02
5.81854314247e-05 	2.9314997336e+02
7.10206446266e-05 	2.9314996705e+02
8.64213168522e-05 	2.9314995919e+02
0.000104900983155 	2.9314994933e+02
0.000127076582718 	2.9314993692e+02
0.000153689668853 	2.9314991054e+02
0.000185621962467 	2.9314986331e+02
0.000223940714803 	2.9314980583e+02
0.000269901988382 	2.9314974973e+02
0.000325035134736 	2.9314971886e+02
0.000391180227766 	2.9314970270e+02
0.000470554339401 	2.9314967217e+02
0.000565803273364 	2.9314969640e+02
0.000679970009453 	2.9314977182e+02
0.00081697009276  	2.9314979094e+02
0.00098146183158  	2.9314980266e+02
0.00117911722742  	2.9314978381e+02
0.00141611180399  	2.9314974457e+02
0.00166654421737  	2.9314968566e+02
0.00191697663075  	2.9314964634e+02
0.00216740904413  	2.9314959888e+02
0.00241784145751  	2.9314953342e+02
0.00266827387089  	2.9314945600e+02
0.00291870628428  	2.9314937827e+02
0.00316913869766  	2.9314930784e+02
0.00341957111104  	2.9314924454e+02
0.00367000352442  	2.9314918499e+02
0.0039204359378   	2.9314912689e+02
0.00417086835118  	2.9314907154e+02
0.00442130076456  	2.9314902495e+02
0.00467173317795  	2.9314899985e+02
0.00492216559133  	2.9314901956e+02
0.00517259800471  	2.9314912188e+02
0.00542303041809  	2.9314936383e+02
0.00567346283147  	2.9314982926e+02
0.00592389524485  	2.9314994992e+02
0.00617432765824  	2.9313569470e+02
0.00642476007162  	2.9312472216e+02
0.006675192485    	2.9311260678e+02
0.00692562489838  	2.9310537277e+02
0.00717605731176  	2.9310075792e+02
0.00742648972514  	2.9309712770e+02
0.00767692213852  	2.9309534894e+02
0.00792735455191  	2.9309426542e+02
0.00817778696529  	2.9309447382e+02
0.00842821937867  	2.9309529570e+02
0.00867865179205  	2.9309908726e+02
0.00892908420543  	2.9310305958e+02
0.00917951661881  	2.9310936196e+02
0.0094299490322   	2.9310958613e+02
0.00968038144558  	2.9310918011e+02
0.00993081385896  	2.9309259057e+02
0.0101812462723   	2.9308440926e+02
0.0104316786857   	2.9308621036e+02
0.0106821110991   	2.9309041730e+02
0.0109325435125   	2.9308537424e+02
0.0111829759259   	2.9308509944e+02
0.0114334083392   	2.9308899383e+02
0.0116838407526   	2.9309785645e+02
0.011934273166    	2.9308829803e+02
0.0121847055794   	2.9305896265e+02
0.0124351379928   	2.9303959877e+02
0.0126855704062   	2.9304259829e+02
0.0129360028195   	2.9306277574e+02
0.0131864352329   	2.9309629420e+02
0.0134368676463   	2.9312923049e+02
0.0136873000597   	2.9312410073e+02
0.0139377324731   	2.9311164264e+02
0.0141881648864   	2.9309298098e+02
0.0144385972998   	2.9307268078e+02
0.0146890297132   	2.9305813439e+02
0.0149394621266   	2.9304775556e+02
0.01518989454     	2.9304391862e+02
0.0154403269534   	2.9304477590e+02
0.0156907593667   	2.9304522881e+02
0.0159411917801   	2.9304630018e+02
0.0161916241935   	2.9304741374e+02
0.0164420566069   	2.9304828883e+02
0.0166924890203   	2.9304872637e+02
0.0169429214336   	2.9304848502e+02
0.017193353847    	2.9304721620e+02
0.0174437862604   	2.9304463128e+02
0.0176942186738   	2.9304079303e+02
0.0179446510872   	2.9304211174e+02
0.0181950835005   	2.9302856591e+02
0.0184455159139   	2.9301855189e+02
0.0186959483273   	2.9301413354e+02
0.0189463807407   	2.9300549091e+02
0.0191968131541   	2.9302746720e+02
0.0194472455675   	2.9297823960e+02
0.0196976779808   	2.9298333220e+02
0.0199481103942   	2.9299104640e+02
0.0201985428076   	2.9297847611e+02
0.020448975221    	2.9297573839e+02
0.0206994076344   	2.9298347680e+02
0.0209498400477   	2.9298690728e+02
0.0212002724611   	2.9298328667e+02
0.0214507048745   	2.9298359722e+02
0.0217011372879   	2.9296721784e+02
0.0219515697013   	2.9295740815e+02
0.0222020021147   	2.9295034617e+02
0.022452434528    	2.9293526881e+02
0.0227028669414   	2.9291256166e+02
0.0229532993548   	2.9289227376e+02
0.0232037317682   	2.9287868378e+02
0.0234541641816   	2.9286774650e+02
0.0237045965949   	2.9285754892e+02
0.0239550290083   	2.9285091282e+02
0.0242054614217   	2.9284996308e+02
0.0244558938351   	2.9285355183e+02
0.0247063262485   	2.9285900528e+02
0.0249567586618   	2.9286400835e+02
0.0252071910752   	2.9286688968e+02
0.0254576234886   	2.9286635766e+02
0.025708055902    	2.9286157986e+02
0.0259584883154   	2.9285248117e+02
0.0262089207288   	2.9284204078e+02
0.0264593531421   	2.9282832785e+02
0.0267097855555   	2.9280869212e+02
0.0269602179689   	2.9278973486e+02
0.0272106503823   	2.9277768986e+02
0.0274610827957   	2.9277096677e+02
0.027711515209    	2.9276730299e+02
0.0279619476224   	2.9276488398e+02
0.0282123800358   	2.9277046217e+02
0.0284628124492   	2.9276576274e+02
0.0287132448626   	2.9276528953e+02
0.028963677276    	2.9277345731e+02
0.0292141096893   	2.9276428160e+02
0.0294645421027   	2.9275580462e+02
0.0297149745161   	2.9274924670e+02
0.0299654069295   	2.9274398936e+02
0.0302158393429   	2.9273952385e+02
0.0304662717562   	2.9273557387e+02
0.0307167041696   	2.9273177623e+02
0.030967136583    	2.9272750275e+02
0.0312175689964   	2.9272214351e+02
0.0314680014098   	2.9271544950e+02
0.0317184338231   	2.9270738891e+02
0.0319688662365   	2.9269776023e+02
0.0322192986499   	2.9268625746e+02
0.0324697310633   	2.9267328534e+02
0.0327201634767   	2.9266013906e+02
0.0329705958901   	2.9264754929e+02
0.0332210283034   	2.9263477271e+02
0.0334714607168   	2.9262097931e+02
0.0337218931302   	2.9260692131e+02
0.0339723255436   	2.9259432996e+02
0.034222757957    	2.9258407219e+02
0.0344731903703   	2.9257552406e+02
0.0347236227837   	2.9256718029e+02
0.0349740551971   	2.9255774080e+02
0.0352244876105   	2.9254715964e+02
0.0354749200239   	2.9253675680e+02
0.0357253524373   	2.9252797717e+02
0.0359757848506   	2.9251084702e+02
0.036226217264    	2.9249433553e+02
0.0364766496774   	2.9247059370e+02
0.0367270820908   	2.9244428838e+02
0.0369775145042   	2.9241191743e+02
0.0372279469175   	2.9238169267e+02
0.0374783793309   	2.9235319127e+02
0.0377288117443   	2.9233012346e+02
0.0379792441577   	2.9229942620e+02
0.0382296765711   	2.9227344907e+02
0.0384801089845   	2.9225051889e+02
0.0387305413978   	2.9222919837e+02
0.0389809738112   	2.9220608687e+02
0.0392314062246   	2.9218185468e+02
0.039481838638    	2.9215930012e+02
0.0397322710514   	2.9213761291e+02
0.0399827034647   	2.9211581636e+02
0.0402331358781   	2.9209442360e+02
0.0404835682915   	2.9206663368e+02
0.0407340007049   	2.9203073647e+02
0.0409844331183   	2.9199512855e+02
0.0412348655316   	2.9195943889e+02
0.041485297945    	2.9191996688e+02
0.0417357303584   	2.9188353224e+02
0.0419861627718   	2.9184490972e+02
0.0422365951852   	2.9180495869e+02
0.0424870275986   	2.9176542460e+02
0.0427374600119   	2.9172756689e+02
0.0429878924253   	2.9168907348e+02
0.0432383248387   	2.9165154865e+02
0.0434887572521   	2.9161540786e+02
0.0437391896655   	2.9157955305e+02
0.0439896220788   	2.9154395574e+02
0.0442400544922   	2.9150945272e+02
0.0444904869056   	2.9147549912e+02
0.044740919319    	2.9144439167e+02
0.0449913517324   	2.9140938917e+02
0.0452417841458   	2.9137393486e+02
0.0454922165591   	2.9134012273e+02
0.0457426489725   	2.9130828693e+02
0.0459930813859   	2.9127440324e+02
0.0462435137993   	2.9123879576e+02
0.0464939462127   	2.9120440007e+02
0.046744378626    	2.9117254841e+02
0.0469948110394   	2.9114046114e+02
0.0472452434528   	2.9110787920e+02
0.0474956758662   	2.9107226354e+02
0.0477461082796   	2.9103610949e+02
0.0479965406929   	2.9100361251e+02
0.0482469731063   	2.9097528006e+02
0.0484974055197   	2.9094695935e+02
0.0487478379331   	2.9091534057e+02
0.0489982703465   	2.9088138797e+02
0.0492487027599   	2.9084728555e+02
0.0494991351732   	2.9081218067e+02
0.0497495675866   	2.9077679506e+02
0.05              	2.9074237866e+02
0.05025           	2.9071148586e+02
0.0505            	2.9068376867e+02
0.05075           	2.9065662258e+02
0.051             	2.9062722358e+02
0.05125           	2.9059544685e+02
0.0515            	2.9056320062e+02
0.05175           	2.9053302302e+02
0.052             	2.9050603887e+02
0.05225           	2.9048365914e+02
0.0525            	2.9045588651e+02
0.05275           	2.9043712004e+02
0.053             	2.9040871909e+02
0.05325           	2.9037887115e+02
0.0535            	2.9032784940e+02
0.05375           	2.9028523296e+02
0.054             	2.9024920291e+02
0.05425           	2.9021492982e+02
0.0545            	2.9018207275e+02
0.05475           	2.9013996755e+02
0.055             	2.9009264687e+02
0.05525           	2.9004955106e+02
0.0555            	2.9000831534e+02
0.05575           	2.8996988402e+02
0.056             	2.8993186637e+02
0.05625           	2.8989061033e+02
0.0565            	2.8984809403e+02
0.05675           	2.8980578867e+02
0.057             	2.8976484197e+02
0.05725           	2.8972192224e+02
0.0575            	2.8967695133e+02
0.05775           	2.8963138858e+02
0.058             	2.8959248459e+02
0.05825           	2.8955592203e+02
0.0585            	2.8951848854e+02
0.05875           	2.8947977309e+02
0.059             	2.8944201344e+02
0.05925           	2.8940462867e+02
0.0595            	2.8936591753e+02
0.05975           	2.8932701936e+02
0.06              	2.8928531928e+02
0.06025           	2.8924866877e+02
0.0605            	2.8921359397e+02
0.06075           	2.8918599354e+02
0.061             	2.8915474320e+02
0.06125           	2.8912187429e+02
0.0615            	2.8908519770e+02
0.06175           	2.8905033378e+02
0.062             	2.8901840899e+02
0.06225           	2.8899056341e+02
0.0625            	2.8896113561e+02
0.06275           	2.8892387053e+02
0.063             	2.8889016458e+02
0.06325           	2.8886035665e+02
0.0635            	2.8883019873e+02
0.06375           	2.8879997553e+02
0.064             	2.8876868526e+02
0.06425           	2.8873455359e+02
0.0645            	2.8870011096e+02
0.06475           	2.8866985144e+02
0.065             	2.8864220465e+02
0.06525           	2.8861479530e+02
0.0655            	2.8858404079e+02
0.06575           	2.8855420660e+02
0.066             	2.8852573183e+02
0.06625           	2.8849769543e+02
0.0665            	2.8846854504e+02
0.06675           	2.8843966628e+02
0.067             	2.8841252681e+02
0.06725           	2.8838729293e+02
0.0675            	2.8836279252e+02
0.06775           	2.8833855746e+02
0.068             	2.8831708037e+02
0.06825           	2.8829821479e+02
0.0685            	2.8827870161e+02
0.06875           	2.8825623574e+02
0.069             	2.8822890666e+02
0.06925           	2.8819657954e+02
0.0695            	2.8816185176e+02
0.06975           	2.8813051134e+02
0.07              	2.8810487979e+02
0.07025           	2.8808196036e+02
0.0705            	2.8805798942e+02
0.07075           	2.8803028633e+02
0.071             	2.8799859666e+02
0.07125           	2.8796347637e+02
0.0715            	2.8792774513e+02
0.07175           	2.8789596331e+02
0.072             	2.8787104524e+02
0.07225           	2.8785205705e+02
0.0725            	2.8783590839e+02
0.07275           	2.8781819300e+02
0.0729977272727   	2.8779758426e+02
0.0732454545455   	2.8777669835e+02
0.0734909090909   	2.8775702245e+02
0.0737363636364   	2.8773833103e+02
0.0739795454545   	2.8771922420e+02
0.0742227272727   	2.8769803072e+02
0.0744636363636   	2.8767422734e+02
0.0747045454545   	2.8764889616e+02
0.0749431818182   	2.8762417385e+02
0.0751795668954   	2.8760162323e+02
0.0754137219247   	2.8758183122e+02
0.0756478769539   	2.8756496840e+02
0.0758798019353   	2.8754970573e+02
0.0761095181074   	2.8753452529e+02
0.0763392342794   	2.8751987217e+02
0.0765667416421   	2.8750523932e+02
0.0767942490048   	2.8748904573e+02
0.0770195475582   	2.8747171976e+02
0.0772448461115   	2.8745483248e+02
0.0774679358555   	2.8743986048e+02
0.0776910255995   	2.8742844343e+02
0.0779119065342   	2.8742125903e+02
0.0781327874689   	2.8741913283e+02
0.0783514595942   	2.8742252981e+02
0.0785701317195   	2.8742937470e+02
0.0787888038448   	2.8743846577e+02
0.0790052446219   	2.8744544648e+02
0.079221685399    	2.8744878922e+02
0.0794381261761   	2.8744895509e+02
0.0796523123617   	2.8744713853e+02
0.0798664985474   	2.8744597460e+02
0.0800784301416   	2.8744726053e+02
0.0802903617359   	2.8745172000e+02
0.0805000387387   	2.8745907282e+02
0.0807074851351   	2.8746840799e+02
0.0809149315315   	2.8747827077e+02
0.0811201473215   	2.8747523167e+02
0.08132315649     	2.8744590014e+02
0.0815261656586   	2.8741453390e+02
0.0817269682058   	2.8738169367e+02
0.081927770753    	2.8734716844e+02
0.0821263666788   	2.8730939392e+02
0.0823249626046   	2.8727315225e+02
0.082521351909    	2.8723865247e+02
0.0827177412134   	2.8720701656e+02
0.0829119238964   	2.8717611866e+02
0.0831061065794   	2.8714624361e+02
0.083298082641    	2.8711248017e+02
0.0834900587026   	2.8708035139e+02
0.0836798281428   	2.8704767634e+02
0.083869597583    	2.8701434497e+02
0.0840593670232   	2.8698564049e+02
0.0842469038817   	2.8695548303e+02
0.0844344407403   	2.8692626211e+02
0.0846219775988   	2.8689783348e+02
0.0848072549772   	2.8686842009e+02
0.0849925323555   	2.8683934396e+02
0.0851778097338   	2.8681541232e+02
0.0853630871121   	2.8679375918e+02
0.0855460485232   	2.8677156543e+02
0.0857290099343   	2.8674489359e+02
0.0859119713454   	2.8671856524e+02
0.0860949327565   	2.8669091564e+02
0.0862755180454   	2.8665943447e+02
0.0864561033343   	2.8662929013e+02
0.0866366886232   	2.8660039430e+02
0.086817273912    	2.8657146003e+02
0.0869954188592   	2.8654033232e+02
0.0871735638063   	2.8650820840e+02
0.0873517087534   	2.8647543850e+02
0.0875273794652   	2.8644453357e+02
0.087703050177    	2.8641363158e+02
0.0878787208887   	2.8638597281e+02
0.0880543916005   	2.8635948350e+02
0.0882275163599   	2.8633472051e+02
0.0884006411193   	2.8631122211e+02
0.0885737658787   	2.8628910472e+02
0.0887443066865   	2.8684206201e+02
0.0889148474943   	2.8682276785e+02
0.089085388302    	2.8680516639e+02
0.0892559291098   	2.8678754572e+02
0.0894238052175   	2.8676753896e+02
0.0895916813251   	2.8674330144e+02
0.0897595574328   	2.8671957425e+02
0.0899274335405   	2.8669921968e+02
0.0900925575808   	2.8667625739e+02
0.0902576816211   	2.8664928057e+02
0.0904228056614   	2.8661879853e+02
0.0905879297017   	2.8658690751e+02
0.0907502067759   	2.8655459409e+02
0.09091248385     	2.8652515146e+02
0.0910747609241   	2.8650023301e+02
0.0912370379982   	2.8648011473e+02
0.09139636458     	2.8646202112e+02
0.0915556911619   	2.8644530702e+02
0.0917150177437   	2.8642872947e+02
0.0918743443256   	2.8641067313e+02
0.0920336709074   	2.8639207768e+02
0.0921929974893   	2.8637443899e+02
0.0923491375395   	2.8635649655e+02
0.0925052775897   	2.8633910224e+02
0.0926614176399   	2.8631960061e+02
0.0928175576901   	2.8630274828e+02
0.0929736977404   	2.8628188021e+02
0.0931298377906   	2.8626052405e+02
0.0932825080619   	2.8623835973e+02
0.0934351783332   	2.8621793052e+02
0.0935878486045   	2.8619579151e+02
0.0937405188759   	2.8617583210e+02
0.0938931891472   	2.8615601511e+02
0.0940458594185   	2.8613634251e+02
0.0941985296898   	2.8611691942e+02
0.0943472853388   	2.8609360822e+02
0.0944960409878   	2.8607562273e+02
0.0946447966368   	2.8606325198e+02
0.0947935522857   	2.8605582016e+02
0.0949423079347   	2.8605246906e+02
0.0950910635837   	2.8605077171e+02
0.0952354440665   	2.8604385035e+02
0.0953798245494   	2.8603288457e+02
0.0955242050322   	2.8601655811e+02
0.095668585515    	2.8599938080e+02
0.0958129659979   	2.8598385810e+02
0.0959573464807   	2.8597027706e+02
0.0961017269635   	2.8595730379e+02
0.0962461074464   	2.8594225293e+02
0.0963904879292   	2.8592310518e+02
0.096534868412    	2.8590149914e+02
0.0966734736755   	2.8587689766e+02
0.0968120789391   	2.8585512684e+02
0.0969506842026   	2.8583870438e+02
0.0970892894661   	2.8582556582e+02
0.0972278947296   	2.8581279069e+02
0.0973664999931   	2.8579867055e+02
0.0975051052567   	2.8578340321e+02
0.0976437105202   	2.8576852527e+02
0.0977823157837   	2.8575538522e+02
0.0979209210472   	2.8574409404e+02
0.0980595263107   	2.8573352293e+02
0.0981981315742   	2.8572236472e+02
0.0983367368378   	2.8571001983e+02
0.0984753421013   	2.8569672731e+02
0.0986139473648   	2.8568321311e+02
0.0987525526283   	2.8567022739e+02
0.0988911578918   	2.8565845601e+02
0.0990297631554   	2.8564828372e+02
0.0991683684189   	2.8563929496e+02
0.0993069736824   	2.8563010469e+02
0.0994455789459   	2.8561937390e+02
0.0995841842094   	2.8560667149e+02
0.099722789473    	2.8559294923e+02
0.0998613947365   	2.8558016613e+02
0.1               	2.8557037572e+02
0.100131926121    	2.8555837203e+02
0.100263504153    	2.8554757054e+02
0.100394735012    	2.8553904928e+02
0.100525619617    	2.8553112167e+02
0.100656158879    	2.8552303920e+02
0.10078635371     	2.8551549662e+02
0.10091620502     	2.8550935714e+02
0.101045713714    	2.8550462333e+02
0.101174880696    	2.8550042766e+02
0.101304047678    	2.8549599476e+02
0.101432872949    	2.8548422611e+02
0.101561357412    	2.8547137675e+02
0.101689501969    	2.8545624604e+02
0.10181730752     	2.8544324922e+02
0.10194477496     	2.8543277571e+02
0.102071905185    	2.8542402742e+02
0.102198699087    	2.8541608064e+02
0.102325157555    	2.8540804607e+02
0.102451281476    	2.8539921553e+02
0.102577071737    	2.8538940272e+02
0.102702529219    	2.8537900275e+02
0.102827654803    	2.8536873152e+02
0.102952449367    	2.8535923289e+02
0.103076913787    	2.8535089827e+02
0.103201048936    	2.8534354602e+02
0.103324855685    	2.8533676743e+02
0.1034480091      	2.8532984459e+02
0.103570837572    	2.8532237615e+02
0.103693341958    	2.8531600863e+02
0.103815523114    	2.8531213391e+02
0.103937381892    	2.8530503774e+02
0.104058919143    	2.8529959095e+02
0.104180135715    	2.8529032193e+02
0.104301032454    	2.8528508090e+02
0.104421610205    	2.8528035620e+02
0.104542187956    	2.8527478658e+02
0.104662446718    	2.8527471024e+02
0.104782387335    	2.8527604248e+02
0.104902010649    	2.8527766114e+02
0.105021317499    	2.8527890526e+02
0.105140308723    	2.8527870197e+02
0.105258985155    	2.8527225415e+02
0.105377347628    	2.8526345453e+02
0.105495396973    	2.8525303029e+02
0.105613134018    	2.8524572206e+02
0.105730559589    	2.8523878753e+02
0.105847674511    	2.8523337205e+02
0.105964479605    	2.8522685001e+02
0.106080975691    	2.8522704940e+02
0.106197163586    	2.8522497973e+02
0.106313351481    	2.8521063248e+02
0.106429231185    	2.8518274996e+02
0.106544803516    	2.8515535807e+02
0.106660069289    	2.8512847843e+02
0.106775029317    	2.8510307796e+02
0.106889684412    	2.8507840572e+02
0.107004035382    	2.8505476263e+02
0.107118083033    	2.8503285820e+02
0.107231828171    	2.8501376631e+02
0.107345271598    	2.8499567183e+02
0.107458414113    	2.8497686032e+02
0.107571556629    	2.8495663626e+02
0.107684398234    	2.8493441549e+02
0.107796939728    	2.8491039288e+02
0.107909181909    	2.8488364952e+02
0.108021424091    	2.8485517480e+02
0.10813336696     	2.8482731132e+02
0.108245011315    	2.8480187422e+02
0.108356357951    	2.8477955114e+02
0.108467407664    	2.8476001955e+02
0.108578457376    	2.8474242089e+02
0.108689210163    	2.8472534517e+02
0.108799666821    	2.8470741056e+02
0.108909828139    	2.8468744875e+02
0.109019694909    	2.8466481512e+02
0.109129267917    	2.8463935684e+02
0.109238840926    	2.8461133384e+02
0.109348120172    	2.8458120000e+02
0.109457106445    	2.8454987845e+02
0.109566092718    	2.8451897925e+02
0.109674786018    	2.8448874169e+02
0.10978318713     	2.8445865934e+02
0.109891588243    	2.8442951171e+02
0.10999969717     	2.8440136867e+02
0.110107514698    	2.8437361975e+02
0.110215041612    	2.8434579987e+02
0.110322278697    	2.8431757393e+02
0.110429226733    	2.8428878288e+02
0.110535886499    	2.8425990579e+02
0.110642546265    	2.8423059981e+02
0.110748917762    	2.8420115754e+02
0.110855001768    	2.8417145435e+02
0.11096079906     	2.8414189381e+02
0.111066596353    	2.8411313613e+02
0.111172106932    	2.8408555505e+02
0.111277617511    	2.8405755603e+02
0.111382841376    	2.8403001907e+02
0.111488065242    	2.8400275426e+02
0.111593002394    	2.8397519410e+02
0.111697653613    	2.8394688577e+02
0.111802304833    	2.8391793964e+02
0.11190667012     	2.8388861739e+02
0.112011035408    	2.8385967190e+02
0.112115114763    	2.8383148474e+02
0.112219194118    	2.8380402987e+02
0.11232298754     	2.8377685341e+02
0.112426495816    	2.8374957135e+02
0.112530004092    	2.8372205364e+02
0.112633227222    	2.8369374397e+02
0.112736450351    	2.8366457746e+02
0.112839388333    	2.8363556848e+02
0.112942041957    	2.8360808709e+02
0.11304469558     	2.8358185395e+02
0.113147064844    	2.8355654450e+02
0.113249150537    	2.8352983666e+02
0.11335123623     	2.8350037719e+02
0.113453038352    	2.8346822682e+02
0.113554840474    	2.8343495979e+02
0.113656359024    	2.8340165353e+02
0.113757877574    	2.8336559585e+02
0.113859112553    	2.8332596045e+02
0.113960347532    	2.8328876689e+02
0.114061298939    	2.8325344682e+02
0.11416196757     	2.8321613066e+02
0.1142626362      	2.8318479396e+02
0.114363022053    	2.8315414767e+02
0.114463125924    	2.8313010025e+02
0.114562948604    	2.8310446733e+02
0.114662771284    	2.8308468021e+02
0.114762312773    	2.8306682771e+02
0.114861573864    	2.8304378811e+02
0.114960834955    	2.8301548870e+02
0.115059815647    	2.8298892634e+02
0.115158516733    	2.8295813688e+02
0.115257217819    	2.8292592273e+02
0.115355639298    	2.8289754452e+02
0.115454060777    	2.8286212401e+02
0.11555220265     	2.8282448759e+02
0.115650065711    	2.8279433923e+02
0.115747928771    	2.8276121933e+02
0.11584551302     	2.8272892234e+02
0.11594281925     	2.8270598690e+02
0.116039848255    	2.8268756777e+02
0.116136600824    	2.8266407609e+02
0.116233353394    	2.8264059439e+02
0.116329829527    	2.8262712535e+02
0.116426030014    	2.8260704907e+02
0.116522230501    	2.8258395899e+02
0.116618155342    	2.8256864559e+02
0.116714080183    	2.8254290874e+02
0.116809729378    	2.8252117598e+02
0.116905378573    	2.8249632990e+02
0.117000752121    	2.8247513324e+02
0.11709612567     	2.8245492782e+02
0.117191223573    	2.8243571027e+02
0.117286321475    	2.8241795538e+02
0.117381143732    	2.8240165060e+02
0.117475691142    	2.8238621274e+02
0.117570238551    	2.8237129347e+02
0.117664511113    	2.8235718730e+02
0.117758509628    	2.8234408862e+02
0.117852508142    	2.8232644195e+02
0.117946232608    	2.8231377295e+02
0.118039957074    	2.8230340799e+02
0.118133407492    	2.8229369782e+02
0.118226584663    	2.8228423561e+02
0.118319761834    	2.8227496762e+02
0.118412939005    	2.8226578586e+02
0.118505842126    	2.8225657525e+02
0.118598745246    	2.8224733337e+02
0.118691374316    	2.8223836818e+02
0.118784003386    	2.8223004091e+02
0.118876632456    	2.8222235562e+02
0.118968986663    	2.8221512829e+02
0.119061340869    	2.8220838086e+02
0.119153420212    	2.8220244006e+02
0.119245499554    	2.8219763576e+02
0.119337304033    	2.8219385795e+02
0.119429108512    	2.8219080067e+02
0.119520638128    	2.8218832297e+02
0.119612167743    	2.8218669903e+02
0.119703422494    	2.8218620804e+02
0.119794677246    	2.8218691834e+02
0.119885657134    	2.8218834888e+02
0.119976637021    	2.8218976775e+02
0.120067342046    	2.8219043845e+02
0.12015804707     	2.8219019389e+02
0.12024847723     	2.8218947921e+02
0.12033890739     	2.8218910052e+02
0.120429062687    	2.8218958334e+02
0.120519217984    	2.8219101109e+02
0.120609098417    	2.8219295258e+02
0.12069897885     	2.8219511110e+02
0.120788584419    	2.8219754457e+02
0.120878189988    	2.8220060052e+02
0.120967520694    	2.8220453516e+02
0.121056851399    	2.8220946743e+02
0.121145907241    	2.8221545163e+02
0.121234963083    	2.8222231056e+02
0.121323744061    	2.8222950002e+02
0.121412525039    	2.8223670491e+02
0.121501031154    	2.8224408887e+02
0.121589537268    	2.8225218560e+02
0.121677768519    	2.8226115565e+02
0.12176599977     	2.8227128150e+02
0.121853956157    	2.8228284768e+02
0.121941912544    	2.8229582398e+02
0.122029594067    	2.8230973333e+02
0.12211727559     	2.8232428097e+02
0.12220468225     	2.8233934316e+02
0.122292088909    	2.8235684229e+02
0.122379220705    	2.8237717155e+02
0.122466352501    	2.8239873428e+02
0.122553484297    	2.8242049075e+02
0.122640340359    	2.8244265310e+02
0.122727196422    	2.8246606730e+02
0.122814052484    	2.8249090250e+02
0.122900631935    	2.8251637034e+02
0.122987211386    	2.8254182166e+02
0.123073790836    	2.8256730628e+02
0.123160370287    	2.8259316338e+02
0.123246949738    	2.8261951032e+02
0.1233332499      	2.8264611622e+02
0.123419550062    	2.8267305891e+02
0.123505850224    	2.8270072232e+02
0.123592150386    	2.8272939257e+02
0.12367816944     	2.8275883287e+02
0.123764188494    	2.8278881194e+02
0.123850207549    	2.8281911221e+02
0.123936226603    	2.8284955508e+02
0.124021962699    	2.8287999696e+02
0.124107698796    	2.8291060973e+02
0.124193434893    	2.8294169441e+02
0.124279170989    	2.8297358374e+02
0.124364622249    	2.8300637651e+02
0.124450073508    	2.8304115929e+02
0.124535524767    	2.8307963410e+02
0.124620976026    	2.8312107043e+02
0.124706140536    	2.8316380350e+02
0.124791305046    	2.8320733265e+02
0.124876469556    	2.8325207107e+02
0.124961346348    	2.8329859862e+02
0.12504622314     	2.8334729692e+02
0.125130812214    	2.8339744182e+02
0.125215401288    	2.8344838380e+02
0.125299990362    	2.8349967674e+02
0.125384290737    	2.8355112448e+02
0.125468591111    	2.8360309996e+02
0.125552602785    	2.8365152355e+02
0.125636614459    	2.8363334920e+02
0.125720626134    	2.8361430971e+02
0.125804637808    	2.8359457998e+02
0.125888358784    	2.8357439990e+02
0.125972079761    	2.8355392103e+02
0.126055800737    	2.8353376515e+02
0.126139521714    	2.8351403096e+02
0.126222949959    	2.8349516167e+02
0.126306378205    	2.8347762017e+02
0.126389806451    	2.8346186551e+02
0.126473234697    	2.8344811444e+02
0.126556368143    	2.8343627071e+02
0.126639501589    	2.8342589469e+02
0.126722340236    	2.8341638111e+02
0.126805178883    	2.8340697242e+02
0.12688801753     	2.8339695454e+02
0.126970560324    	2.8338575871e+02
0.127053103119    	2.8337301922e+02
0.127135350061    	2.8335870386e+02
0.127217597003    	2.8334295990e+02
0.127299548093    	2.8332615233e+02
0.127381499183    	2.8330857959e+02
0.127463450273    	2.8329051498e+02
0.127545104439    	2.8327215089e+02
0.127626758605    	2.8325348595e+02
0.12770841277     	2.8323452301e+02
0.127790066936    	2.8321523616e+02
0.127871422002    	2.8319564639e+02
0.127952777068    	2.8317567987e+02
0.128034132134    	2.8315532789e+02
0.128115186997    	2.8313461478e+02
0.12819624186     	2.8311345989e+02
0.128277296723    	2.8309192225e+02
0.128358050267    	2.8307025513e+02
0.128438803811    	2.8304877516e+02
0.128519256035    	2.8302807761e+02
0.12859970826     	2.8300866337e+02
0.128680160485    	2.8299098799e+02
0.128760310257    	2.8297527556e+02
0.12884046003     	2.8296135975e+02
0.128920609802    	2.8294887925e+02
0.129000455977    	2.8293733625e+02
0.129080302152    	2.8292617145e+02
0.129160148327    	2.8291494577e+02
0.129239689746    	2.8290336445e+02
0.129319231165    	2.8289125900e+02
0.129398772583    	2.8287865676e+02
0.129478008073    	2.8286568356e+02
0.129557243563    	2.8285241584e+02
0.129636479053    	2.8283894057e+02
0.129715714543    	2.8282526547e+02
0.129794950034    	2.8281130785e+02
0.12987387601     	2.8279694549e+02
0.129952801986    	2.8278197138e+02
0.130031727963    	2.8276628692e+02
0.130110653939    	2.8274989217e+02
0.130189579916    	2.8273290211e+02
0.130268505892    	2.8271550878e+02
0.130347117422    	2.8269799273e+02
0.130425728953    	2.8268099229e+02
0.130504340483    	2.8266432949e+02
0.130582952013    	2.8264798053e+02
0.130661563544    	2.8263195471e+02
0.130739856809    	2.8261631038e+02
0.130818150074    	2.8260100059e+02
0.130896443339    	2.8258600181e+02
0.130974736604    	2.8257126173e+02
0.131052708995    	2.8255680462e+02
0.131130681386    	2.8254268499e+02
0.131208653777    	2.8252911832e+02
0.131286626168    	2.8251628990e+02
0.131364598559    	2.8250430499e+02
0.131442246065    	2.8249322996e+02
0.131519893571    	2.8248301046e+02
0.131597541077    	2.8247355614e+02
0.131675188583    	2.8246470654e+02
0.131752836089    	2.8245627383e+02
0.131830483595    	2.8244808855e+02
0.131908131101    	2.8244000863e+02
0.13198544678     	2.8243190352e+02
0.132062762459    	2.8242359073e+02
0.132140078138    	2.8241490338e+02
0.132217393817    	2.8240568899e+02
0.132294709496    	2.8239585749e+02
0.13237168902     	2.8238540182e+02
0.132448668544    	2.8237429248e+02
0.132525648068    	2.8236253353e+02
0.132602627592    	2.8235013325e+02
0.132679607116    	2.8233716590e+02
0.132756246022    	2.8232385796e+02
0.132832884929    	2.8231048213e+02
0.132909523835    	2.8229743317e+02
0.132986162742    	2.8228509556e+02
0.133062457976    	2.8227380012e+02
0.13313875321     	2.8226368974e+02
0.133215048445    	2.8225498208e+02
0.133291343679    	2.8224795299e+02
0.133367638914    	2.8224231995e+02
0.133443585768    	2.8223751217e+02
0.133519532622    	2.8223328660e+02
0.133595479476    	2.8222877724e+02
0.133671426331    	2.8222331358e+02
0.133747373185    	2.8221687718e+02
0.133823320039    	2.8220988526e+02
0.133898912002    	2.8220280935e+02
0.133974503964    	2.8219593106e+02
0.134050095926    	2.8218942810e+02
0.134125687889    	2.8218342109e+02
0.134201279851    	2.8217798123e+02
0.134276871814    	2.8217310120e+02
0.134352102092    	2.8216866757e+02