# Probe 0 (3.4 0.005 1.5)
# Probe 1 (4.4 0.005 1.5)
# Probe 2 (5.4 0.005 1.5)
# Probe 3 (5.9 0.005 1.5)
# Probe 4 (6.2 0.005 1.5)
# Probe 5 (6.7 0.005 1.5)
# Probe 6 (8.2 0.005 1.5)
#           Probe                 0                 1                 2                 3                 4                 5                 6
#            Time
    1.1999904e-06       2.920865203       3.246764802       3.326040098       3.338771631       3.343090369       3.347123971        3.35058395
  2.639965056e-06       2.920863308       3.246762696       3.326037941       3.338769466       3.343088201         3.3471218       3.350581777
  4.367944597e-06       2.920861035       3.246760169       3.326035352       3.338766867       3.343085599       3.347119195       3.350579169
  6.441505713e-06       2.920858307       3.246757137       3.326032246       3.338763749       3.343082476       3.347116069        3.35057604
   8.92973777e-06       2.920855033       3.246753498       3.326028518       3.338760007        3.34307873       3.347112318       3.350572285
  1.191552707e-05       2.920851105       3.246749132       3.326024045       3.338755517       3.343074234       3.347107817       3.350567779
  1.549838863e-05       2.920846392       3.246743893       3.326018678       3.338750129       3.343068839       3.347102415       3.350562372
  1.979776087e-05       2.920840736       3.246737606       3.326012238       3.338743664       3.343062366       3.347095934       3.350555884
  2.495674128e-05        2.92083395       3.246730063       3.326004511       3.338735907       3.343054599       3.347088158         3.3505481
  3.114713435e-05       2.920825808       3.246721012       3.325995239         3.3387266       3.343045279       3.347078827        3.35053876
  3.857523794e-05       2.920816038       3.246710152       3.325984114       3.338715432       3.343034097       3.347067632       3.350527552
  4.748896225e-05       2.920804315       3.246697121       3.325970765       3.338702032        3.34302068       3.347054198       3.350514105
  5.818543142e-05       2.920790249       3.246681486       3.325954747       3.338685954        3.34300458       3.347038079       3.350497969
  7.102064463e-05       2.920773372       3.246662726       3.325935529       3.338666662       3.342985264        3.34701874        3.35047861
  8.642131685e-05       2.920753125       3.246640219       3.325912473       3.338643518        3.34296209       3.346995537       3.350455384
  0.0001049009832       2.920728834       3.246613218       3.325884812       3.338615751       3.342934287       3.346967701       3.350427519
  0.0001270765827        2.92069969       3.246580822       3.325851626       3.338582437        3.34290093       3.346934304       3.350394087
  0.0001536896689       2.920664722       3.246541952       3.325811807       3.338542466       3.342860908       3.346894233       3.350353975
  0.0001856219625       2.920622777       3.246495327       3.325764043        3.33849452       3.342812899       3.346846166       3.350305858
  0.0002239407148       2.920572461       3.246439395       3.325706746       3.338437003       3.342755307       3.346788505       3.350248138
  0.0002699019884       2.920512135       3.246372334       3.325638047       3.338368042       3.342686257       3.346719372       3.350178933
  0.0003250351347       2.920439811        3.24629193        3.32555568       3.338285358       3.342603467       3.346636482       3.350095957
  0.0003911802278       2.920353102       3.246195521       3.325456917       3.338186217       3.342504198       3.346537093       3.349996465
  0.0004705543394       2.920249152       3.246079909       3.325338483        3.33806733       3.342385157       3.346417908       3.349877157
  0.0005658032734       2.920124585        3.24594129       3.325196479       3.337924783       3.342242425       3.346275004       3.349734105
  0.0006799700095       2.919975592       3.245775303       3.325026439       3.337754092       3.342071513       3.346103886       3.349562811
  0.0008169700928       2.919797393       3.245576354       3.324822632       3.337549505       3.341866662       3.345898788         3.3493575
  0.0009814618316        2.91958457       3.245337822       3.324578275       3.337304213       3.341621052       3.345652882        3.34911134
   0.001179117227       2.919330936       3.245051686       3.324285151       3.337009967       3.341326426         3.3453579       3.348816054
   0.001416111804       2.919030327       3.244709303       3.323934403       3.336657878       3.340973882       3.345004931       3.348462719
   0.001666544217       2.918716631        3.24434834       3.323564615       3.336286677         3.3406022         3.3446328       3.348090204
   0.001916976631       2.918406122       3.243988238       3.323195689       3.335916343       3.340231387        3.34426154        3.34771856
   0.002167409044       2.918097172       3.243629016       3.322827626       3.335546875       3.339861442       3.343891149       3.347347786
   0.002417841458       2.917787574       3.243270703       3.322460421       3.335178271       3.339492362       3.343521623       3.346977878
   0.002668273871       2.917475139       3.242913352        3.32209407       3.334810526       3.339124142        3.34315296       3.346608834
   0.002918706284       2.917158264       3.242557036       3.321728571       3.334443637       3.338756781       3.342785155       3.346240649
   0.003169138698       2.916836296       3.242201853       3.321363924       3.334077603       3.338390276       3.342418209       3.345873324
   0.003419571111       2.916509631       3.241847909       3.321000121       3.333712416        3.33802462       3.342052113       3.345506849
   0.003670003524       2.916179676       3.241495328       3.320637163       3.333348073        3.33765981       3.341686865       3.345141224
   0.003920435938       2.915848293       3.241144215       3.320275053       3.332984572       3.337295845       3.341322463       3.344776446
   0.004170868351       2.915517294       3.240794642       3.319913794       3.332621909       3.336932719       3.340958904       3.344412511
   0.004421300765       2.915188154       3.240446619        3.31955339       3.332260083       3.336570431       3.340596184       3.344049417
   0.004671733178       2.914862039       3.240100074       3.319193855       3.331899097       3.336208981       3.340234304       3.343687165
   0.004922165591       2.914539756       3.239754803       3.318835188        3.33153894       3.335848356       3.339873252       3.343325741
   0.005172598005       2.914221518       3.239410486       3.318477409       3.331179619        3.33548856       3.339513029       3.342965149
   0.005423030418       2.913906825       3.239066673       3.318120542       3.330821136       3.335129589       3.339153632       3.342605384
   0.005673462831       2.913594783       3.238722828       3.317764616       3.330463494       3.334771445       3.338795057       3.342246443
   0.005923895245       2.913284573       3.238378411       3.317409667       3.330106697       3.334414127       3.338437301       3.341888324
   0.006174327658         2.9129757       3.238032974       3.317055736       3.329750749       3.334057637       3.338080363       3.341531024
   0.006424760072       2.912668022        3.23768628       3.316702866        3.32939566       3.333701978       3.337724238       3.341174538
   0.006675192485       2.912361647        3.23733837       3.316351098       3.329041442        3.33334715       3.337368926       3.340818865
   0.006925624898       2.912056732       3.236989599       3.316000462       3.328688112       3.332993157       3.337014426          3.340464
   0.007176057312       2.911753331       3.236640606       3.315650971       3.328335692       3.332640003       3.336660737       3.340109942
   0.007426489725        2.91145135       3.236292236       3.315302619       3.327984218       3.332287707       3.336307867       3.339756696
   0.007676922139       2.911150554       3.235945377       3.314955336       3.327633701       3.331936265       3.335955801        3.33940424
   0.007927354552       2.910850658       3.235600875       3.314609032        3.32728418       3.331585701       3.335604548       3.339052582
   0.008177786965       2.910551405        3.23525937        3.31426354       3.326935662       3.331236018       3.335254089       3.338701698
   0.008428219379       2.910252488        3.23492129       3.313918735       3.326588227       3.330887299       3.334904487       3.338351645
   0.008678651792       2.909953325       3.234586622       3.313574346       3.326241823       3.330539511       3.334555689       3.338002359
   0.008929084205        2.90965332       3.234255154       3.313230198       3.325896456       3.330192699       3.334207722       3.337653859
   0.009179516619       2.909351975        3.23392642        3.31288614       3.325552091       3.329846889       3.333860598       3.337306141
   0.009429949032       2.909048994       3.233599763       3.312542113       3.325208665       3.329502093       3.333514332       3.336959202
   0.009680381446        2.90874437       3.233274378       3.312198166       3.324866086       3.329158317       3.333168942       3.336613039
   0.009930813859       2.908438426       3.232949354       3.311854466        3.32452424       3.328815546       3.332824446        3.33626765
    0.01018124627       2.908131749       3.232623736       3.311511286       3.324183001       3.328473744       3.332480865       3.335923032
    0.01043167869       2.907825141       3.232296629        3.31116898       3.323842248       3.328132856       3.332138219       3.335579183
     0.0106821111       2.907519537        3.23196731       3.310827926       3.323501881       3.327792797       3.331796524       3.335236101
    0.01093254351       2.907215884       3.231635354       3.310488447       3.323161842       3.327453467       3.331455789       3.334893783
    0.01118297593       2.906915016       3.231300712       3.310150732       3.322822124       3.327114752       3.331116017       3.334552229
    0.01143340834       2.906617548       3.230963801        3.30981477       3.322482779       3.326776541       3.330777195       3.334211437
    0.01168384075       2.906323779       3.230625491       3.309480322        3.32214391       3.326438739       3.330439297       3.333871406
    0.01193427317       2.906033627       3.230286953       3.309146927       3.321805649       3.326101281       3.330102278       3.333532136
    0.01218470558        2.90574663       3.229949568       3.308813965       3.321468142       3.325764154       3.329766089       3.333193639
    0.01243513799       2.905461952       3.229614681       3.308480721       3.321131456       3.325427347       3.329430624       3.332855889
    0.01268557041       2.905178586       3.229283453       3.308146567       3.320795633       3.325090918       3.329095803       3.332518903
    0.01293600282       2.904895525       3.228956623       3.307811054       3.320460605       3.324754932        3.32876153       3.332182684
    0.01318643523       2.904611952       3.228634431       3.307474045       3.320126211       3.324419457       3.328427706       3.331847238
    0.01343686765       2.904327322       3.228316619       3.307135792       3.319792224       3.324084539       3.328094248       3.331512571
    0.01368730006       2.904041419       3.228002539        3.30679695       3.319458391       3.323750187       3.327761086       3.331178692
    0.01393773247       2.903754354        3.22769132       3.306458513       3.319124503       3.323416372       3.327428174       3.330845609
    0.01418816489       2.903466523       3.227381997       3.306121689       3.318790465        3.32308303       3.327095493       3.330513333
     0.0144385973       2.903178526       3.227073611       3.305787711       3.318456343       3.322750099       3.326763047       3.330181875
    0.01468902971       2.902891047       3.226765211        3.30545762       3.318122412       3.322417542       3.326430869       3.329851246
    0.01493946213        2.90260466        3.22645596       3.305132046       3.317789149       3.322085369        3.32609901       3.329521455
    0.01518989454       2.902319653       3.226145216        3.30481107       3.317457179       3.321753694       3.325767544       3.329192509
    0.01544032695       2.902035892       3.225832627       3.304494146       3.317127188       3.321422744       3.325436566        3.32886441
    0.01569075937        2.90175274         3.2255182       3.304180188       3.316799802       3.321092852       3.325106189       3.328537154
    0.01594119178       2.901469167       3.225202273       3.303867779        3.31647547       3.320764426       3.324776546       3.328210728
    0.01619162419       2.901184022       3.224885309       3.303555396       3.316154352       3.320437885       3.324447778       3.327885107
    0.01644205661       2.900896392       3.224567773       3.303241656       3.315836251       3.320113586       3.324120049       3.327560256
    0.01669248902       2.900605882       3.224251233       3.302925939       3.315520613       3.319791749       3.323793534       3.327236124
    0.01694292143       2.900312739       3.223937683       3.302608186       3.315206625       3.319472396       3.323468404       3.326912646
    0.01719335385       2.900017837       3.223626787       3.302288835       3.314893283       3.319155309       3.323144816       3.326589747
    0.01744378626       2.899722549       3.223316025       3.301969093       3.314579551        3.31884005       3.322822892       3.326267344
    0.01769421867       2.899428522        3.22300414       3.301650091       3.314264537       3.318525963       3.322502693       3.325945352
    0.01794465109       2.899137389       3.222689813       3.301332226       3.313947686       3.318212285       3.322184197       3.325623692
     0.0181950835       2.898850486       3.222371775        3.30101499       3.313628871       3.317898205       3.321867287       3.325302302
    0.01844551591       2.898568653       3.222049813       3.300697041       3.313308437       3.317583006       3.321551746       3.324981142
    0.01869594833       2.898292142       3.221725018       3.300376614       3.312987112       3.317266219       3.321237261       3.324660206
    0.01894638074       2.898020609       3.221399432       3.300052174        3.31266578        3.31694773       3.320923448       3.324339526
    0.01919681315       2.897753175       3.221075561       3.299723167       3.312345219       3.316627831       3.320609901       3.324019194
    0.01944724557       2.897488497       3.220755757        3.29939043       3.312025764       3.316307092       3.320296156       3.323699278
    0.01969767798       2.897225117        3.22044189       3.299056215       3.311707308       3.315986345       3.319981871       3.323379943
    0.01994811039       2.896961712       3.220134971       3.298723457       3.311389259       3.315666392       3.319666804        3.32306136
    0.02019854281       2.896697325       3.219835059       3.298395163       3.311070792       3.315347825       3.319350888       3.322743709
    0.02044897522        2.89643144       3.219541344       3.298073919       3.310751197       3.315030865       3.319034261       3.322427164
    0.02069940763       2.896163927       3.219252388       3.297761314       3.310430262       3.314715311       3.318717251       3.322111868
    0.02094984005        2.89589491       3.218966388       3.297457482       3.310108538       3.314400626       3.318400334       3.321797917
    0.02120027246       2.895624582       3.218681545        3.29716104       3.309787331       3.314086156       3.318084042       3.321485347
    0.02145070487       2.895353064       3.218396299       3.296869519       3.309468441       3.313771417       3.317768862       3.321174133
    0.02170113729       2.895080356       3.218109346       3.296579923       3.309153721       3.313456334       3.317455138        3.32086419
     0.0219515697       2.894806393       3.217819706       3.296289193       3.308844559       3.313141349       3.317142996       3.320555383
    0.02220200211       2.894531139       3.217526749       3.295994818       3.308541399       3.312827397       3.316832329       3.320247534
    0.02245243453       2.894254692       3.217230333       3.295695287        3.30824353       3.312515675       3.316522844       3.319940433
    0.02270286694       2.893977353       3.216930735        3.29539026       3.307949263       3.312207244       3.316214166       3.319633853
    0.02295329935       2.893699659       3.216628349       3.295080485       3.307656242       3.311902651        3.31590596       3.319327569
    0.02320373177        2.89342237       3.216323906        3.29476753       3.307361932       3.311601741       3.315598044       3.319021381
    0.02345416418       2.893146413        3.21601831       3.294453379       3.307064175       3.311303627       3.315290444       3.318715138
    0.02370459659       2.892872794       3.215712487       3.294139976       3.306761684       3.311006821        3.31498339       3.318408762
    0.02395502901       2.892602472       3.215407269       3.293828813       3.306454302       3.310709554       3.314677217       3.318102255
    0.02420546142       2.892336236       3.215103359       3.293520701       3.306142973       3.310410232       3.314372239       3.317795707
    0.02445589384       2.892074577       3.214801534       3.293215759       3.305829445       3.310107837        3.31406863       3.317489286
    0.02470632625       2.891817593       3.214502729       3.292913551       3.305515832       3.309802169       3.313766345        3.31718322
    0.02495675866       2.891564908       3.214207649       3.292613331        3.30520413       3.309493859       3.313465114       3.316877773
    0.02520719108       2.891315635       3.213916702       3.292314328       3.304895814       3.309184179       3.313164505       3.316573214
    0.02545762349       2.891068459       3.213629941       3.292015977       3.304591593       3.308874731       3.312864063       3.316269783
     0.0257080559       2.890821825       3.213347011       3.291718031       3.304291362       3.308567056       3.312563431       3.315967653
    0.02595848832       2.890574184       3.213067182       3.291420545       3.303994369       3.308262291        3.31226244       3.315666908
    0.02620892073       2.890324136       3.212789472        3.29112377       3.303699507       3.307960953       3.311961134       3.315367515
    0.02645935314       2.890070537       3.212512799       3.290827988       3.303405642       3.307662891       3.311659761       3.315069327
    0.02670978556       2.889812753       3.212236072       3.290533359       3.303111906       3.307367426       3.311358692       3.314772088
    0.02696021797       2.889550743       3.211958316       3.290239845       3.302817856       3.307073604       3.311058331       3.314475468
    0.02721065038       2.889285085       3.211678697       3.289947216       3.302523463       3.306780482       3.310759014       3.314179103
     0.0274610828       2.889016848         3.2113966       3.289655141       3.302228981       3.306487356       3.310460955       3.313882653
    0.02771151521        2.88874738        3.21111169       3.289363323        3.30193477       3.306193893       3.310164227       3.313585858
    0.02796194762        2.88847806       3.210823903       3.289071578       3.301641125       3.305900136       3.309868792       3.313288588
    0.02821238004       2.888210078        3.21053338       3.288779849       3.301348162       3.305606414       3.309574543       3.312990877
    0.02846281245       2.887944272       3.210240511       3.288488162       3.301055799       3.305313166       3.309281356       3.312692931
    0.02871324486       2.887681063       3.209945919       3.288196542       3.300763818       3.305020764       3.308989134       3.312395097
    0.02896367728       2.887420471       3.209650447       3.287904923       3.300471972       3.304729375       3.308697817       3.312097818
    0.02921410969       2.887162193       3.209355099       3.287613105       3.300180085       3.304438909       3.308407366       3.311801566
     0.0294645421       2.886905718       3.209060954       3.287320795       3.299888103       3.304149052        3.30811773       3.311506761
    0.02971497452       2.886650443       3.208769057       3.287027698       3.299596082       3.303859372       3.307828811       3.311213706
    0.02996540693       2.886395795       3.208480299       3.286733649       3.299304138        3.30356945       3.307540447       3.310922529
    0.03021583934       2.886141295       3.208195333        3.28643871       3.299012366       3.303278991       3.307252407       3.310633169
    0.03046627176       2.885886659       3.207914493       3.286143258       3.298720827       3.302987934       3.306964452       3.310345419
    0.03071670417        2.88563173        3.20763769       3.285847821         3.2984294       3.302696316       3.306676237       3.310058848
    0.03096713658       2.885376621       3.207364747       3.285553183       3.298138025       3.302404424        3.30638757       3.309773043
      0.031217569       2.885121594       3.207095202       3.285260122       3.297846647       3.302112575        3.30609832       3.309487561
    0.03146800141       2.884867033        3.20682834       3.284969315       3.297555321       3.301821066       3.305808481       3.309202016
    0.03171843382       2.884613379       3.206563297       3.284681249       3.297264263       3.301530129       3.305518188       3.308916144
    0.03196886624       2.884361041       3.206299166       3.284396186       3.296973834       3.301239918       3.305227699       3.308629834
    0.03221929865       2.884110322       3.206035097       3.284114175        3.29668449       3.300950532        3.30493736       3.308343143
    0.03246973106        2.88386136       3.205770375       3.283835104       3.296396691       3.300662061       3.304647553       3.308056273
    0.03272016348       2.883614096       3.205504482       3.283558753       3.296110828       3.300374628        3.30435864       3.307769539
    0.03297059589       2.883368305       3.205237133       3.283284822       3.295827161       3.300088409       3.304070909       3.307483308
     0.0332210283       2.883123652       3.204968283       3.283012914       3.295545801        3.29980362       3.303784546       3.307197933
    0.03347146072       2.882879789       3.204698074       3.282742499       3.295266716       3.299520484       3.303499615        3.30691369
    0.03372189313       2.882636433       3.204426741       3.282472896       3.294989761        3.29923918       3.303216071       3.306630726
    0.03397232554       2.882393418        3.20415453       3.282203286         3.2947147         3.2989598       3.302933793       3.306349032
    0.03422275796       2.882150705       3.203881639       3.281932765       3.294441211       3.298682319       3.302652634       3.306068449
    0.03447319037       2.881908321        3.20360819        3.28166044       3.294168888       3.298406588       3.302372465         3.3057887
    0.03472362278       2.881666286       3.203334303       3.281385556       3.293897225       3.298132337       3.302093217       3.305509446
     0.0349740552       2.881424541       3.203060124       3.281107628       3.293625627       3.297859203        3.30181489       3.305230346
    0.03522448761       2.881182915       3.202785852       3.280826552       3.293353439       3.297586751       3.301537542       3.304951128
    0.03547492002       2.880941135       3.202511745       3.280542681       3.293080014       3.297314507       3.301261257       3.304671638
    0.03572535244       2.880698892        3.20223813       3.280256817       3.292804807       3.297041986       3.300986091       3.304391858
    0.03597578485        2.88045595       3.201965382       3.279970122       3.292527484       3.296768731       3.300712021       3.304111912
    0.03622621726       2.880212234       3.201693845       3.279683942       3.292248004       3.296494359        3.30043891       3.303832025
    0.03647664968       2.879967905       3.201423767       3.279399566       3.291966678       3.296218619       3.300166496       3.303552484
    0.03672708209       2.879723395       3.201155253       3.279117982       3.291684147       3.295941442       3.299894411       3.303273584
     0.0369775145       2.879479302       3.200888286       3.278839686       3.291401307       3.295662971       3.299622236       3.302995576
    0.03722794692       2.879236305       3.200622794       3.278564611       3.291119173       3.295383578       3.299349571       3.302718641
    0.03747837933       2.878994869       3.200358749       3.278292195       3.290838708       3.295103823       3.299076111       3.302442868
    0.03772881174       2.878755537       3.200096237       3.278021589       3.290560648       3.294824388       3.298801713        3.30216826
    0.03797924416       2.878518303       3.199835471       3.277751928       3.290285377       3.294545973       3.298526437       3.301894753
    0.03822967657         2.8782829       3.199576726        3.27748256       3.290012863       3.294269181       3.298250544       3.301622237
    0.03848010898       2.878048758         3.1993202       3.277213178       3.289742693       3.293994411       3.297974463       3.301350583
     0.0387305414       2.877815086       3.199065881       3.276943816       3.289474186       3.293721792       3.297698712       3.301079664
    0.03898097381       2.877581024        3.19881347        3.27667473       3.289206562       3.293451166       3.297423819       3.300809368
    0.03923140622       2.877345848       3.198562403       3.276406233       3.288939105       3.293182132       3.297150223       3.300539605
    0.03948183864       2.877109109       3.198311937        3.27613855       3.288671305       3.292914145       3.296878211       3.300270307
    0.03973227105       2.876870657       3.198061279       3.275871743       3.288402916       3.292646633       3.296607866       3.300001425
    0.03998270346       2.876630792       3.197809716       3.275605723       3.288133954       3.292379116       3.296339069       3.299732925
    0.04023313588       2.876389968       3.197556685       3.275340321       3.287864632       3.292111291       3.296071531       3.299464787
    0.04048356829       2.876148812       3.197301812       3.275075367       3.287595281       3.291843067       3.295804855          3.299197
     0.0407340007       2.875907982       3.197044928       3.274810743       3.287326259       3.291574553       3.295538613       3.298929565
    0.04098443312       2.875668336       3.196786041       3.274546403       3.287057898       3.291306004       3.295272423        3.29866249
    0.04123486553       2.875430087         3.1965253       3.274282355       3.286790465       3.291037743       3.295006014       3.298395791
    0.04148529795       2.875193508        3.19626312       3.274018625       3.286524146       3.290770084        3.29473926       3.298129493
    0.04173573036       2.874958527       3.196000182       3.273755241       3.286259043       3.290503273       3.294472188       3.297863621
    0.04198616277       2.874724855       3.195737369       3.273492216       3.285995167       3.290237463       3.294204959       3.297598202
    0.04223659519       2.874492065       3.195475647        3.27322955       3.285732441       3.289972703       3.293937827       3.297333255
     0.0424870276        2.87425964       3.195215908        3.27296723       3.285470709       3.289708957       3.293671088       3.297068796
    0.04273746001        2.87402703       3.194958842       3.272705229        3.28520976       3.289446124        3.29340503       3.296804833
    0.04298789243       2.873793717       3.194704887       3.272443499       3.284949364       3.289184076       3.293139889       3.296541366
    0.04323832484       2.873559272       3.194454189       3.272181976        3.28468931       3.288922683       3.292875819        3.29627839
    0.04348875725       2.873323406       3.194206583       3.271920607       3.284429435       3.288661842       3.292612884       3.296015893
    0.04373918967       2.873086059       3.193961633       3.271659388       3.284169635       3.288401494        3.29235106        3.29575385
    0.04398962208       2.872847426       3.193718684       3.271398406        3.28390986       3.288141628       3.292090258       3.295492226
    0.04424005449       2.872607987       3.193476949       3.271137867       3.283650101       3.287882273       3.291830357       3.295230969
    0.04449048691       2.872368393        3.19323558       3.270878088       3.283390374       3.287623471       3.291571232       3.294970018
    0.04474091932        2.87212945        3.19299374       3.270619453       3.283130727       3.287365243       3.291312781       3.294709307
    0.04499135173       2.871891916       3.192750687       3.270362325       3.282871248       3.287107563       3.291054945        3.29444878
    0.04524178415       2.871656438       3.192505874       3.270106963       3.282612093       3.286850342       3.290797705       3.294188401