# Continuity error
# Time            # Local           # Global          # Cumulative      
0.05              6.6166098880e-08	1.1166021745e-09	1.1166021745e-09
0.1               8.7364056563e-08	9.6369109262e-09	1.0753513101e-08
0.15              1.2020615149e-07	2.5690588602e-08	3.6444101702e-08
0.2               2.5834770708e-07	1.3013810782e-08	4.9457912484e-08
0.25              7.2956738042e-07	7.1486104278e-08	1.2094401676e-07
0.3               1.2417750516e-06	1.3429481144e-07	2.5523882820e-07
