# Probe 0 (0.4 0.005 1.4)
# Probe 1 (0.9 0.005 1.4)
# Probe 2 (1.4 0.005 1.4)
# Probe 3 (1.9 0.005 1.4)
# Probe 4 (2.4 0.005 1.4)
# Probe 5 (2.9 0.005 1.4)
# Probe 6 (3.4 0.005 1.4)
# Probe 7 (3.9 0.005 1.4)
# Probe 8 (4.4 0.005 1.4)
# Probe 9 (4.9 0.005 1.4)
# Probe 10 (5.4 0.005 1.4)
# Probe 11 (5.9 0.005 1.4)
# Probe 12 (6.4 0.005 1.4)
# Probe 13 (6.9 0.005 1.4)
# Probe 14 (7.4 0.005 1.4)
# Probe 15 (7.9 0.005 1.4)
# Probe 16 (8.4 0.005 1.4)
#           Probe                 0                 1                 2                 3                 4                 5                 6                 7                 8                 9                10                11                12                13                14                15                16
#            Time
    1.1999904e-06                 1                 1                 1                 1      0.9999923816                 1                 1                 1                 1                 1                 1                 1                 1                 1                 1                 1                 1
  2.639965056e-06                 1                 1                 1      0.9999999999      0.9999832383                 1                 1                 1                 1                 1                 1                 1                 1                 1                 1                 1                 1
  4.367944597e-06                 1                 1                 1      0.9999999998      0.9999722641                 1                 1                 1                 1                 1                 1                 1                 1                 1                 1                 1                 1
  6.441505713e-06                 1                 1                 1      0.9999999995      0.9999590917                 1                 1                 1                 1                 1                 1                 1                 1                 1                 1                 1                 1
   8.92973777e-06                 1                 1                 1      0.9999999991      0.9999432801                 1                 1                 1                 1                 1                 1                 1                 1                 1                 1                 1                 1
  1.191552707e-05                 1                 1                 1      0.9999999984      0.9999242993                 1                 1                 1                 1                 1                 1                 1                 1                 1                 1                 1                 1
  1.549838863e-05                 1                 1                 1      0.9999999973      0.9999015123                 1                 1                 1                 1                 1                 1                 1                 1                 1                 1                 1                 1
  1.979776087e-05                 1                 1                 1      0.9999999955       0.999874153                 1                 1                 1                 1                 1                 1                 1                 1                 1                 1                 1                 1
  2.495674128e-05                 1                 1                 1      0.9999999929      0.9998413017                 1                 1                 1                 1                 1                 1                 1                 1                 1                 1                 1                 1
  3.114713435e-05                 1                 1                 1      0.9999999889      0.9998018507                 1                 1                 1                 1                 1                 1                 1                 1                 1                 1                 1                 1
  3.857523794e-05                 1                 1                 1       0.999999983      0.9997544662                 1                 1                 1                 1                 1                 1                 1                 1                 1                 1                 1                 1
  4.748896225e-05                 1                 1                 1      0.9999999741      0.9996975388                 1                 1                 1                 1                 1                 1                 1                 1                 1                 1                 1                 1
  5.818543142e-05                 1                 1                 1       0.999999961      0.9996291305                 1                 1                 1                 1                 1                 1                 1                 1                 1                 1                 1                 1
  7.102064463e-05                 1                 1                 1      0.9999999414      0.9995469061                 1                 1                 1                 1                 1                 1                 1                 1                 1                 1                 1                 1
  8.642131685e-05                 1                 1                 1      0.9999999123      0.9994480468                 1                 1                 1                 1                 1                 1                 1                 1                 1                 1                 1                 1
  0.0001049009832                 1                 1                 1      0.9999998687      0.9993291323                 1                 1                 1                 1                 1                 1                 1                 1                 1                 1                 1                 1
  0.0001270765827                 1                 1                 1      0.9999998031      0.9991860106                 1                 1                 1                 1                 1                 1                 1                 1                 1                 1                 1                 1
  0.0001536896689                 1                 1                 1      0.9999997031      0.9990136271                 1                 1                 1                 1                 1                 1                 1                 1                 1                 1                 1                 1
  0.0001856219625                 1                 1                 1      0.9999995485      0.9988058703      0.9999999999                 1                 1                 1                 1                 1                 1                 1                 1                 1                 1                 1
  0.0002239407148                 1                 1                 1      0.9999993049      0.9985551938      0.9999999999                 1                 1                 1                 1                 1                 1                 1                 1                 1                 1                 1
  0.0002699019884                 1                 1                 1      0.9999989132      0.9982524618      0.9999999996                 1                 1                 1                 1                 1                 1                 1                 1                 1                 1                 1
  0.0003250351347                 1                 1                 1      0.9999982686      0.9978861813       0.999999999                 1                 1                 1                 1                 1                 1                 1                 1                 1                 1                 1
  0.0003911802278                 1                 1                 1      0.9999971857      0.9974419031      0.9999999973                 1                 1                 1                 1                 1                 1                 1                 1                 1                 1                 1
  0.0004705543394                 1                 1                 1       0.999995338      0.9969012254      0.9999999927                 1                 1                 1                 1                 1                 1                 1                 1                 1                 1                 1
  0.0005658032734                 1                 1                 1      0.9999921684       0.996240613        0.99999998                 1                 1                 1                 1                 1                 1                 1                 1                 1                 1                 1
  0.0006799700095                 1                 1                 1      0.9999867872       0.995430539      0.9999999462                 1                 1                 1                 1                 1                 1                 1                 1                 1                 1                 1
  0.0008169700928                 1                 1                 1      0.9999778871      0.9944309319        0.99999986                 1                 1                 1                 1                 1                 1                 1                 1                 1                 1                 1
  0.0009814618316                 1                 1                 1      0.9999638547      0.9931911977      0.9999996567                 1                 1                 1                 1                 1                 1                 1                 1                 1                 1                 1
   0.001179117227                 1                 1                 1      0.9999432188      0.9916484891       0.999999226                 1                 1                 1                 1                 1                 1                 1                 1                 1                 1                 1
   0.001416111804                 1                 1                 1      0.9999154257      0.9897329183      0.9999984332                 1                 1                 1                 1                 1                 1                 1                 1                 1                 1                 1
   0.001666544217                 1                 1                 1      0.9998847569      0.9876444932       0.999997331                 1                 1                 1                 1                 1                 1                 1                 1                 1                 1                 1
   0.001916976631                 1                 1      0.9999999999      0.9998519311      0.9854918567      0.9999960294                 1                 1                 1                 1                 1                 1                 1                 1                 1                 1                 1
   0.002167409044                 1                 1      0.9999999999       0.999814886       0.983264576      0.9999945525                 1                 1                 1                 1                 1                 1                 1                 1                 1                 1                 1
   0.002417841458                 1                 1      0.9999999998      0.9997727376      0.9809526116      0.9999928698                 1                 1                 1                 1                 1                 1                 1                 1                 1                 1                 1
   0.002668273871                 1                 1      0.9999999997      0.9997254015      0.9785507135      0.9999909171      0.9999999999                 1                 1                 1                 1                 1                 1                 1                 1                 1                 1
   0.002918706284                 1                 1      0.9999999996      0.9996732789      0.9760580722       0.999988622      0.9999999999                 1                 1                 1                 1                 1                 1                 1                 1                 1                 1
   0.003169138698                 1                 1      0.9999999994      0.9996166308      0.9734750454      0.9999859173      0.9999999999                 1                 1                 1                 1                 1                 1                 1                 1                 1                 1
   0.003419571111                 1                 1      0.9999999992      0.9995550492      0.9707995401      0.9999827359      0.9999999998                 1                 1                 1                 1                 1                 1                 1                 1                 1                 1
   0.003670003524                 1                 1       0.999999999      0.9994876758      0.9680266941      0.9999790049      0.9999999998                 1                 1                 1                 1                 1                 1                 1                 1                 1                 1
   0.003920435938                 1                 1      0.9999999988       0.999413917      0.9651517493      0.9999746524      0.9999999997                 1                 1                 1                 1                 1                 1                 1                 1                 1                 1
   0.004170868351                 1                 1      0.9999999985      0.9993337986      0.9621723879      0.9999696258      0.9999999996                 1                 1                 1                 1                 1                 1                 1                 1                 1                 1
   0.004421300765                 1                 1      0.9999999981      0.9992477173      0.9590882808      0.9999639029      0.9999999995                 1                 1                 1                 1                 1                 1                 1                 1                 1                 1
   0.004671733178                 1                 1      0.9999999975      0.9991559631      0.9558989578       0.999957487      0.9999999994                 1                 1                 1                 1                 1                 1                 1                 1                 1                 1
   0.004922165591                 1                 1      0.9999999969      0.9990584962      0.9526024159      0.9999503842      0.9999999992                 1                 1                 1                 1                 1                 1                 1                 1                 1                 1
   0.005172598005                 1                 1      0.9999999961      0.9989555323      0.9491941406      0.9999438234       0.999999999                 1                 1                 1                 1                 1                 1                 1                 1                 1                 1
   0.005423030418                 1                 1      0.9999999951       0.998846098      0.9456716142      0.9999373815      0.9999999988                 1                 1                 1                 1                 1                 1                 1                 1                 1                 1
   0.005673462831                 1                 1      0.9999999939      0.9987301744      0.9420327888      0.9999300277      0.9999999985                 1                 1                 1                 1                 1                 1                 1                 1                 1                 1
   0.005923895245                 1                 1      0.9999999925      0.9986076009      0.9382740063      0.9999222575      0.9999999981                 1                 1                 1                 1                 1                 1                 1                 1                 1                 1
   0.006174327658                 1                 1      0.9999999908       0.998478157      0.9343904089      0.9999155231      0.9999999976                 1                 1                 1                 1                 1                 1                 1                 1                 1                 1
   0.006424760072                 1                 1      0.9999999888       0.998341624      0.9303834059      0.9999055216      0.9999999971                 1                 1                 1                 1                 1                 1                 1                 1                 1                 1
   0.006675192485                 1                 1      0.9999999864      0.9981978625      0.9262489364      0.9998931405      0.9999999965                 1                 1                 1                 1                 1                 1                 1                 1                 1                 1
   0.006925624898                 1                 1      0.9999999836      0.9980467459       0.921983111      0.9998793039      0.9999999958                 1                 1                 1                 1                 1                 1                 1                 1                 1                 1
   0.007176057312                 1                 1      0.9999999802      0.9978880857      0.9175823845      0.9998642908      0.9999999949                 1                 1                 1                 1                 1                 1                 1                 1                 1                 1
   0.007426489725                 1                 1      0.9999999764      0.9977216446      0.9130434364      0.9998481521      0.9999999938                 1                 1                 1                 1                 1                 1                 1                 1                 1                 1
   0.007676922139                 1                 1      0.9999999719      0.9975471561      0.9083629784      0.9998308612      0.9999999926                 1                 1                 1                 1                 1                 1                 1                 1                 1                 1
   0.007927354552                 1                 1      0.9999999666      0.9973643437       0.903537374      0.9998123738      0.9999999912                 1                 1                 1                 1                 1                 1                 1                 1                 1                 1
   0.008177786965                 1                 1      0.9999999606      0.9971729096      0.8985627908      0.9997926634      0.9999999896                 1                 1                 1                 1                 1                 1                 1                 1                 1                 1
   0.008428219379                 1                 1      0.9999999537      0.9969725987      0.8934355656      0.9997716927      0.9999999878                 1                 1                 1                 1                 1                 1                 1                 1                 1                 1
   0.008678651792                 1                 1      0.9999999459      0.9967631214      0.8881518592      0.9997494053      0.9999999858                 1                 1                 1                 1                 1                 1                 1                 1                 1                 1
   0.008929084205                 1                 1       0.999999937      0.9965441967      0.8827078763      0.9997257489      0.9999999837                 1                 1                 1                 1                 1                 1                 1                 1                 1                 1
   0.009179516619                 1                 1      0.9999999269      0.9963155395      0.8770997945       0.999700671      0.9999999813                 1                 1                 1                 1                 1                 1                 1                 1                 1                 1
   0.009429949032                 1                 1      0.9999999156      0.9960768472      0.8713237052      0.9996741173      0.9999999787                 1                 1                 1                 1                 1                 1                 1                 1                 1                 1
   0.009680381446                 1                 1      0.9999999029      0.9958277909      0.8653755954      0.9996460288      0.9999999759                 1                 1                 1                 1                 1                 1                 1                 1                 1                 1
   0.009930813859                 1                 1      0.9999998887      0.9955680074      0.8592513462      0.9996163398      0.9999999728                 1                 1                 1                 1                 1                 1                 1                 1                 1                 1
    0.01018124627                 1                 1       0.999999873      0.9952971001      0.8529467558      0.9995849748      0.9999999694                 1                 1                 1                 1                 1                 1                 1                 1                 1                 1
    0.01043167869                 1                 1      0.9999998555      0.9950146367      0.8464575317      0.9995518458      0.9999999656                 1                 1                 1                 1                 1                 1                 1                 1                 1                 1
     0.0106821111                 1                 1       0.999999836      0.9947201608      0.8397793274      0.9995168517      0.9999999615                 1                 1                 1                 1                 1                 1                 1                 1                 1                 1
    0.01093254351                 1                 1      0.9999998144      0.9944131954      0.8329078045      0.9994798815       0.999999957                 1                 1                 1                 1                 1                 1                 1                 1                 1                 1
    0.01118297593                 1                 1      0.9999997904      0.9940932467      0.8258385799      0.9994408187       0.999999952                 1                 1                 1                 1                 1                 1                 1                 1                 1                 1
    0.01143340834                 1                 1      0.9999997638      0.9937598063      0.8185672128      0.9993995435      0.9999999465                 1                 1                 1                 1                 1                 1                 1                 1                 1                 1
    0.01168384075                 1                 1      0.9999997364      0.9934123431      0.8110891612      0.9993558129      0.9999999403                 1                 1                 1                 1                 1                 1                 1                 1                 1                 1
    0.01193427317                 1                 1       0.999999711      0.9930502985      0.8033998028      0.9993095763      0.9999999329                 1                 1                 1                 1                 1                 1                 1                 1                 1                 1
    0.01218470558                 1                 1      0.9999996847      0.9926731036       0.795494618      0.9992607422      0.9999999243                 1                 1                 1                 1                 1                 1                 1                 1                 1                 1
    0.01243513799                 1                 1      0.9999996562      0.9922801159      0.7873690202       0.999209198      0.9999999143                 1                 1                 1                 1                 1                 1                 1                 1                 1                 1
    0.01268557041                 1                 1      0.9999996257      0.9918706527      0.7790185941      0.9991548285      0.9999999028                 1                 1                 1                 1                 1                 1                 1                 1                 1                 1
    0.01293600282                 1                 1      0.9999995918      0.9914439926      0.7704391475      0.9990975164      0.9999998894                 1                 1                 1                 1                 1                 1                 1                 1                 1                 1
    0.01318643523                 1                 1      0.9999995558      0.9909993802      0.7616268834      0.9990371417      0.9999998741                 1                 1                 1                 1                 1                 1                 1                 1                 1                 1
    0.01343686765                 1                 1      0.9999995142      0.9905360372      0.7525788042      0.9989735814      0.9999998566                 1                 1                 1                 1                 1                 1                 1                 1                 1                 1
    0.01368730006                 1                 1      0.9999994729      0.9900531686      0.7432936485      0.9989067095      0.9999998367                 1                 1                 1                 1                 1                 1                 1                 1                 1                 1
    0.01393773247                 1                 1       0.999999424      0.9895500094      0.7337743398      0.9988363977      0.9999998141                 1                 1                 1                 1                 1                 1                 1                 1                 1                 1
    0.01418816489                 1                 1      0.9999993697      0.9890259278      0.7240369397      0.9987625229      0.9999997884                 1                 1                 1                 1                 1                 1                 1                 1                 1                 1
     0.0144385973                 1                 1      0.9999993132      0.9884811485      0.7141716062      0.9986850245      0.9999997594                 1                 1                 1                 1                 1                 1                 1                 1                 1                 1
    0.01468902971                 1                 1       0.999999248      0.9879297848      0.7058172136      0.9986047261      0.9999997266                 1                 1                 1                 1                 1                 1                 1                 1                 1                 1
    0.01493946213                 1                 1       0.999999149      0.9874175228      0.7031173916      0.9985254374        0.99999969                 1                 1                 1                 1                 1                 1                 1                 1                 1                 1
    0.01518989454                 1                 1      0.9999990328      0.9869389152      0.7012001535      0.9984508955      0.9999996494                 1                 1                 1                 1                 1                 1                 1                 1                 1                 1
    0.01544032695                 1                 1      0.9999989071      0.9864828033      0.6993258486      0.9983823766      0.9999996057                 1                 1                 1                 1                 1                 1                 1                 1                 1                 1
    0.01569075937                 1                 1      0.9999987771      0.9860324973      0.6974286373       0.998318084      0.9999995597                 1                 1                 1                 1                 1                 1                 1                 1                 1                 1
    0.01594119178                 1                 1      0.9999986472      0.9855759524      0.6954847732      0.9982547618       0.999999513                 1                 1                 1                 1                 1                 1                 1                 1                 1                 1
    0.01619162419                 1                 1      0.9999985208      0.9851079455      0.6934965865      0.9981895965      0.9999994667                 1                 1                 1                 1                 1                 1                 1                 1                 1                 1
    0.01644205661                 1                 1      0.9999983993      0.9846291832      0.6914803928      0.9981212461      0.9999994213                 1                 1                 1                 1                 1                 1                 1                 1                 1                 1