# Probe 0 (2.4 2.295 1.5)
#           Probe                 0
#            Time
    1.1999904e-06            293.15
  2.639965056e-06            293.15
  4.367944597e-06            293.15
  6.441505713e-06            293.15
   8.92973777e-06            293.15
  1.191552707e-05            293.15
  1.549838863e-05            293.15
  1.979776087e-05            293.15
  2.495674128e-05            293.15
  3.114713435e-05            293.15
  3.857523794e-05            293.15
  4.748896225e-05            293.15
  5.818543142e-05            293.15
  7.102064463e-05            293.15
  8.642131685e-05            293.15
  0.0001049009832            293.15
  0.0001270765827            293.15
  0.0001536896689            293.15
  0.0001856219625            293.15
  0.0002239407148            293.15
  0.0002699019884            293.15
  0.0003250351347            293.15
  0.0003911802278            293.15
  0.0004705543394            293.15
  0.0005658032734            293.15
  0.0006799700095            293.15
  0.0008169700928            293.15
  0.0009814618316            293.15
   0.001179117227            293.15
   0.001416111804       293.1500002
   0.001666544217       293.1500009
   0.001916976631       293.1500039
   0.002167409044       293.1500131
   0.002417841458        293.150038
   0.002668273871       293.1500975
   0.002918706284       293.1502267
   0.003169138698       293.1504839
   0.003419571111       293.1509589
   0.003670003524        293.151778
   0.003920435938       293.1531052
   0.004170868351       293.1551332
   0.004421300765       293.1580639
   0.004671733178       293.1620742
   0.004922165591       293.1672699
   0.005172598005       293.1736293
   0.005423030418       293.1809476
   0.005673462831       293.1887945
   0.005923895245       293.1965052
   0.006174327658       293.2032214
   0.006424760072       293.2079976
   0.006675192485       293.2099679
   0.006925624898       293.2085485
   0.007176057312       293.2036237
   0.007426489725       293.1957025
   0.007676922139       293.1858351
   0.007927354552       293.1755091
   0.008177786965       293.1663877
   0.008428219379       293.1600007
   0.008678651792        293.157474
   0.008929084205       293.1593603
   0.009179516619       293.1656724
   0.009429949032       293.1758848
   0.009680381446       293.1889702
   0.009930813859       293.2035271
    0.01018124627       293.2179407
    0.01043167869       293.2305079
     0.0106821111       293.2395565
    0.01093254351       293.2436358
    0.01118297593       293.2418033
    0.01143340834       293.2339385
    0.01168384075       293.2208979
    0.01193427317        293.204404
    0.01218470558       293.1867975
    0.01243513799       293.1706817
    0.01268557041       293.1585451
    0.01293600282       293.1523542
    0.01318643523       293.1532556
    0.01343686765       293.1613076
    0.01368730006       293.1754256
    0.01393773247       293.1935607
    0.01418816489       293.2131973
     0.0144385973       293.2318679
    0.01468902971       293.2476187
    0.01493946213       293.2593142
    0.01518989454       293.2667435
    0.01544032695       293.2705028
    0.01569075937       293.2716454
    0.01594119178       293.2713519
    0.01619162419       293.2705447
    0.01644205661       293.2696646
    0.01669248902       293.2686661
    0.01694292143       293.2671461
    0.01719335385       293.2645299
    0.01744378626       293.2602923
    0.01769421867       293.2541414
    0.01794465109       293.2462009
     0.0181950835       293.2371068
    0.01844551591       293.2279356
    0.01869594833       293.2199888
    0.01894638074       293.2145176
    0.01919681315       293.2124558
    0.01944724557       293.2142154
    0.01969767798       293.2195658
    0.01994811039        293.227681
    0.02019854281       293.2372876
    0.02044897522       293.2469662
    0.02069940763       293.2555648
    0.02094984005       293.2623845
    0.02120027246       293.2672679
    0.02145070487       293.2705614
    0.02170113729       293.2729485
     0.0219515697       293.2751808
    0.02220200211       293.2778103
    0.02245243453       293.2808475
    0.02270286694       293.2837732
    0.02295329935       293.2857519
    0.02320373177       293.2859024
    0.02345416418       293.2836017
    0.02370459659       293.2787034
    0.02395502901        293.271613
    0.02420546142       293.2632447
    0.02445589384       293.2548729
    0.02470632625       293.2479721
    0.02495675866       293.2438623
    0.02520719108       293.2434026
    0.02545762349       293.2469036
     0.0257080559       293.2540811
    0.02595848832       293.2641639
    0.02620892073       293.2760515
    0.02645935314       293.2884812
    0.02670978556       293.3002098
    0.02696021797       293.3101563
    0.02721065038       293.3175546
     0.0274610828        293.321988
    0.02771151521       293.3233498
    0.02796194762       293.3217127
    0.02821238004       293.3172675
    0.02846281245        293.310201
    0.02871324486       293.3006968
    0.02896367728       293.2890344
    0.02921410969       293.2757062
     0.0294645421       293.2614772
    0.02971497452       293.2473547
    0.02996540693       293.2345123
    0.03021583934       293.2241578
    0.03046627176       293.2173766
    0.03071670417       293.2150669
    0.03096713658       293.2178747
      0.031217569       293.2260501
    0.03146800141       293.2393712
    0.03171843382       293.2571086
    0.03196886624       293.2780208
    0.03221929865       293.3004781
    0.03246973106       293.3226417
    0.03272016348       293.3426986
    0.03297059589       293.3590061
     0.0332210283       293.3702223
    0.03347146072        293.375493
    0.03372189313        293.374602
    0.03397232554       293.3680509
    0.03422275796       293.3570287
    0.03447319037       293.3432089
    0.03472362278        293.328359
     0.0349740552       293.3140258
    0.03522448761       293.3014157
    0.03547492002       293.2913223
    0.03572535244        293.284029
    0.03597578485       293.2792696
    0.03622621726       293.2763789
    0.03647664968       293.2745237
    0.03672708209       293.2729987
     0.0369775145       293.2714071
    0.03722794692       293.2697002
    0.03747837933       293.2681387
    0.03772881174       293.2672072
    0.03797924416       293.2674931
    0.03822967657       293.2695311
    0.03848010898       293.2736687
     0.0387305414        293.279973
    0.03898097381        293.288189
    0.03923140622       293.2977717
    0.03948183864       293.3079951
    0.03973227105       293.3180957
    0.03998270346       293.3273737
    0.04023313588       293.3352714
    0.04048356829       293.3413742
     0.0407340007       293.3453559
    0.04098443312       293.3469703
    0.04123486553       293.3460502
    0.04148529795       293.3425423
    0.04173573036       293.3365746
    0.04198616277       293.3284854
    0.04223659519       293.3188922
     0.0424870276       293.3087017
    0.04273746001        293.299007
    0.04298789243       293.2909224
    0.04323832484       293.2854374
    0.04348875725       293.2833051
    0.04373918967       293.2849478
    0.04398962208        293.290369
    0.04424005449       293.2991226
    0.04449048691       293.3103644
    0.04474091932       293.3229781
    0.04499135173       293.3356966
    0.04524178415       293.3472439
    0.04549221656       293.3564617
    0.04574264897       293.3624394
    0.04599308139       293.3646246
     0.0462435138       293.3629117
    0.04649394621       293.3576121
    0.04674437863       293.3494146
    0.04699481104       293.3392835
    0.04724524345        293.328244
    0.04749567587       293.3173145
    0.04774610828       293.3074199
    0.04799654069       293.2992938
    0.04824697311       293.2934161
    0.04849740552        293.290003
    0.04874783793       293.2890485
    0.04899827035       293.2904201
    0.04924870276       293.2938509
    0.04949913517       293.2990595
    0.04974956759       293.3058274
             0.05       293.3139612
          0.05025       293.3232349
           0.0505       293.3334368
          0.05075       293.3442438
            0.051       293.3551784
          0.05125       293.3656029
           0.0515       293.3747873
          0.05175       293.3820099
            0.052       293.3866406
          0.05225       293.3881973
           0.0525       293.3863942
          0.05275       293.3811731
            0.053       293.3727377
          0.05325        293.361572
           0.0535       293.3484128
          0.05375       293.3342253
            0.054       293.3201196
          0.05425       293.3072526
           0.0545       293.2967282
          0.05475       293.2894919
            0.055       293.2862258
          0.05525       293.2872918
           0.0555       293.2926538
          0.05575       293.3019237
            0.056       293.3144552
          0.05625       293.3294043
           0.0565       293.3457618
          0.05675       293.3623938
            0.057       293.3781198
          0.05725       293.3918475
           0.0575       293.4027088
          0.05775        293.410139
            0.058        293.413897
          0.05825       293.4140527
           0.0585       293.4109746
          0.05875       293.4052957
            0.059       293.3978314
          0.05925       293.3894779
           0.0595       293.3810822
          0.05975       293.3733043
             0.06       293.3665364
          0.06025       293.3609279
           0.0605       293.3564271
          0.06075        293.352858
            0.061       293.3500247
          0.06125       293.3478091
           0.0615       293.3462339
          0.06175       293.3454708
            0.062       293.3457987
          0.06225       293.3475157
           0.0625       293.3508204
          0.06275       293.3557073
            0.063       293.3619221
          0.06325       293.3689901
           0.0635       293.3762975
          0.06375        293.383202
            0.064       293.3891538
          0.06425       293.3937998
           0.0645       293.3970457
          0.06475       293.3990437
            0.065       293.4001033
          0.06525       293.4005439
           0.0655       293.4005954
          0.06575       293.4003446
            0.066       293.3997772
          0.06625       293.3988739
           0.0665       293.3977086
          0.06675         293.39651
            0.067       293.3956751
          0.06725       293.3957233
           0.0675       293.3971908
          0.06775        293.400497
            0.068       293.4058179
          0.06825       293.4130013
           0.0685       293.4215519
          0.06875       293.4307027
            0.069       293.4395435
          0.06925       293.4471669
           0.0695       293.4528018
          0.06975       293.4559182
             0.07       293.4562958
          0.07025       293.4540343
           0.0705       293.4495225
          0.07075       293.4433556
            0.071       293.4362413
          0.07125       293.4289138
           0.0715       293.4220677
          0.07175       293.4163052
            0.072       293.4120971
          0.07225       293.4097674
           0.0725       293.4094989
          0.07275       293.4113175
            0.073       293.4151028
          0.07325       293.4205942
           0.0735       293.4274184
          0.07375       293.4351232
            0.074       293.4432098
          0.07425       293.4511932
           0.0745       293.4586784
          0.07475       293.4654225
            0.075       293.4713578
          0.07525       293.4765692
           0.0755       293.4812248
          0.07575       293.4854774
            0.076       293.4893807
          0.07625       293.4928511
           0.0765       293.4956734
          0.07675       293.4975447
            0.077       293.4981479
          0.07725       293.4972393
           0.0775       293.4947279
          0.07775       293.4907415
            0.078       293.4856416
          0.07825       293.4800052
           0.0785       293.4745641
          0.07875       293.4701124
            0.079       293.4673918
          0.07925       293.4669844
           0.0795       293.4692258
          0.07975       293.4741595
             0.08       293.4815417
          0.08025       293.4908884
           0.0805       293.5015571
          0.08075       293.5128476
            0.081       293.5240912
    0.08124675325       293.5345886
    0.08149350649        293.544059
    0.08173701299       293.5521085
    0.08197731545       293.5586167
    0.08221761791       293.5636112
    0.08245471634       293.5670377
    0.08269181476       293.5690095
    0.08292570916       293.5696222
    0.08315960355       293.5690617
    0.08339029392       293.5675648
    0.08362098428       293.5653739
    0.08385167464       293.5627468
    0.08407911584        293.559964
    0.08430655705       293.5571966
    0.08453399825       293.5546208
     0.0847581432        293.552414
    0.08498228815       293.5506575
    0.08520643311        293.549465
    0.08543057806       293.5489602
    0.08565132688       293.5492737
    0.08587207569        293.550529
    0.08609282451       293.5528348
    0.08631357333         293.55624
    0.08653432215       293.5607047
     0.0867515105       293.5659943
    0.08696869885       293.5719286
     0.0871858872       293.5781702
    0.08739945575       293.5842212
     0.0876130243       293.5897812
    0.08782659284       293.5944885
    0.08804016139        293.598081
    0.08824998312       293.6004176
    0.08845980485        293.601625
    0.08866962658       293.6018899
    0.08887563337       293.6014869
    0.08908164016       293.6006997
    0.08928764695       293.5997851
    0.08949365374       293.5989501
    0.08969569886       293.5983607
    0.08989774398       293.5981188
     0.0900997891        293.598342
    0.09030183422       293.5991765
    0.09049975597       293.6007738
    0.09069767772       293.6033708
    0.09089559947       293.6072145
    0.09109352122       293.6125284
    0.09129144297       293.6194536
    0.09148936472       293.6279909
    0.09168278825       293.6377206
    0.09187621178       293.6484639
    0.09206963531       293.6597081
    0.09226305884        293.670838
    0.09245648237       293.6812038
     0.0926499059        293.690198
    0.09283836985         293.69718
     0.0930268338        293.702104
    0.09321529775       293.7048623
     0.0934037617       293.7055367
    0.09359222565        293.704374
    0.09378068961       293.7017489
     0.0939636105       293.6982336
    0.09414653139       293.6941964
    0.09432945229       293.6900335
    0.09451237318       293.6860735
    0.09469529408        293.682557
    0.09487821497       293.6796312
    0.09506113586       293.6773609
    0.09523752387       293.6757958
    0.09541391187       293.6748057
    0.09559029988        293.674333
    0.09576668788       293.6743158
    0.09594307589       293.6746979
    0.09611946389       293.6754388
     0.0962958519       293.6765194
     0.0964722399       293.6779456
    0.09664862791       293.6797459
    0.09681619651       293.6818447
    0.09698376512       293.6843578
    0.09715133372       293.6873077
    0.09731890233       293.6906938
    0.09748647093        293.694486
    0.09765403953       293.6986242
    0.09782160814       293.7030211
    0.09798917674       293.7075704
    0.09815674535       293.7121682
    0.09832431395       293.7167267
    0.09849188256       293.7211841
    0.09865945116        293.725513
    0.09882701977       293.7297133
    0.09899458837       293.7338064
    0.09916215698        293.737825
    0.09932972558       293.7417976
    0.09949729419       293.7457306
    0.09966486279       293.7495939
     0.0998324314       293.7533111
              0.1       293.7567613
     0.1001612903       293.7596853
     0.1003220604       293.7620533
     0.1004823118       293.7637262
     0.1006420463       293.7646075
     0.1008012655       293.7646673
     0.1009599711       293.7639589
     0.1011181647       293.7626253
      0.101275848       293.7608925
     0.1014330227       293.7590492
     0.1015896904       293.7574151
     0.1017458527       293.7562961
     0.1019015112       293.7559389
     0.1020566676       293.7565041
     0.1022113235       293.7580435
     0.1023654806       293.7605053
     0.1025191403       293.7637387
     0.1026723044       293.7675176
     0.1028249744       293.7715736
     0.1029771519       293.7756346
     0.1031288385       293.7794592
     0.1032800358        293.782887
     0.1034307453       293.7858439
     0.1035809687       293.7883569
     0.1037307075       293.7905479
     0.1038799633       293.7926072
     0.1040287376       293.7947509
      0.104177032       293.7971771
      0.104324848       293.8000275
     0.1044721872       293.8033672
     0.1046185789       293.8071616
     0.1047644999       293.8113185
     0.1049099517       293.8156707
     0.1050549357       293.8200146
     0.1051994536       293.8241425
     0.1053435068       293.8278735
     0.1054870968       293.8310792
     0.1056302252       293.8336932
     0.1057728932       293.8357135
     0.1059151026       293.8371966
     0.1060568547       293.8382384
      0.106198151       293.8389521
     0.1063389929       293.8394441
      0.106479382        293.839796
     0.1066193197       293.8400484
     0.1067588074       293.8401986
     0.1068978466       293.8402091
     0.1070368858       293.8400238
     0.1071754765       293.8395886
     0.1073136201       293.8388707
     0.1074513181       293.8378751
     0.1075885719       293.8366634
     0.1077258257       293.8353503
     0.1078626354       293.8341081
     0.1079990022       293.8331384
     0.1081349278       293.8326609
     0.1082704135       293.8328851
     0.1084058991        293.833987
     0.1085409449       293.8360774
     0.1086755523       293.8391847
     0.1088097225       293.8432311
     0.1089434572       293.8480478
     0.1090767577       293.8534027
     0.1092096253       293.8590308
      0.109342493       293.8646756
     0.1094749279       293.8700626
     0.1096069314       293.8749776
     0.1097385049        293.879261
     0.1098700784        293.882819
     0.1100012219       293.8855837
     0.1101323655       293.8875535
      0.110263079       293.8887524
      0.110393364       293.8892539
      0.110523649       293.8891611
     0.1106535054       293.8885924
     0.1107829347       293.8876733
     0.1109119382       293.8865243
     0.1110405173       293.8852459
     0.1111686735       293.8839104
     0.1112968297       293.8825546
      0.111424563       293.8811906
     0.1115518746       293.8798068
     0.1116791863       293.8783799
     0.1118060764       293.8769043
     0.1119329665       293.8753846
     0.1120594351       293.8738641
     0.1121854835       293.8724111
     0.1123115319       293.8711172
     0.1124371601       293.8701034
     0.1125623695       293.8694935
     0.1126871616       293.8694029
     0.1128119537       293.8699253
     0.1129363285       293.8711112
     0.1130602873       293.8729588
      0.113184246       293.8754259
     0.1133077888       293.8784175
     0.1134313316       293.8818311
     0.1135544584       293.8855343
     0.1136771707       293.8894131
      0.113799883       293.8933947
     0.1139221807       293.8974244
     0.1140444784       293.9015278
     0.1141663615       293.9057542
     0.1142878314       293.9102005
     0.1144093014        293.914993
     0.1145303582       293.9202166
      0.114651415       293.9259568
     0.1147720586       293.9322051
     0.1148927023       293.9389174
     0.1150129327       293.9459209
     0.1151331632       293.9530118
     0.1152529805       293.9598874
     0.1153723861       293.9662571
     0.1154917916       293.9718745
     0.1156107855       293.9765102
      0.115729369         293.98004
     0.1158479525       293.9824384
     0.1159661256       293.9837478
     0.1160838899        293.984102
     0.1162012467       293.9836924
     0.1163186035       293.9827321
     0.1164355528       293.9814591
      0.116552096       293.9800844
     0.1166682345       293.9787519
     0.1167843731       293.9775175
      0.116900107       293.9763646
     0.1170154376       293.9752051
     0.1171307683       293.9739018
     0.1172456957       293.9723059
     0.1173602212       293.9702732
     0.1174747467       293.9676942
     0.1175888704       293.9645471
     0.1177025937       293.9608921
      0.117816317       293.9568552
     0.1179296398       293.9526571
     0.1180425636       293.9485487
     0.1181554874       293.9447781
     0.1182680122       293.9415973
     0.1183805369       293.9391795
     0.1184930617       293.9376371
     0.1186051861       293.9369987
     0.1187173104       293.9372033
     0.1188290343       293.9381182
     0.1189407582       293.9395835
     0.1190520816       293.9414153
     0.1191634051       293.9434555
     0.1192743281       293.9455749
     0.1193852511       293.9477194
     0.1194957736       293.9498877
     0.1196062962       293.9521574
     0.1197164183       293.9546358
     0.1198265404       293.9574682
     0.1199362621       293.9607701
     0.1200455848       293.9646272
     0.1201549075       293.9690861
     0.1202638312       293.9741018
     0.1203727549       293.9796086
     0.1204812796       293.9854606
     0.1205898043       293.9915238
       0.12069793       293.9976042
     0.1208060557       294.0035495
     0.1209137824       294.0091766
     0.1210211117       294.0143551
     0.1211284409         294.01901
     0.1212353726       294.0230711
     0.1213419082       294.0265255
     0.1214484439       294.0293966
     0.1215545835       294.0316994
     0.1216603285       294.0334657
     0.1217660736       294.0347251
     0.1218714241       294.0354845
     0.1219767745       294.0357498
     0.1220817304       294.0355225
     0.1221866863       294.0348117
     0.1222912477       294.0336433
      0.122395809       294.0320512
     0.1225003703       294.0300852
     0.1226049317       294.0278071
     0.1227090954       294.0252941
     0.1228132592       294.0226041
     0.1229174229       294.0197966
     0.1230211876       294.0169309
     0.1231249523       294.0140314
     0.1232287169       294.0111199
     0.1233320809       294.0082201
      0.123435445       294.0053281
      0.123538809       294.0024534
     0.1236417708       293.9996244
     0.1237447327       293.9968604
     0.1238476945       293.9942069
     0.1239502526       293.9917346
     0.1240528106       293.9895074
     0.1241553687       293.9876094
     0.1242575214       293.9861351
     0.1243596741       293.9851535
     0.1244618268       293.9847361
     0.1245639794       293.9849401
     0.1246657235       293.9857913
     0.1247674676        293.987299
     0.1248692117       293.9894465
     0.1249709558        293.992195
     0.1250726999       293.9954926
     0.1251740303       293.9992658
     0.1252753608       294.0034666
     0.1253766913       294.0080304
     0.1254780218       294.0128871
     0.1255789353       294.0179401
     0.1256798488       294.0231279
     0.1257807623       294.0283643
      0.125881257       294.0335381
     0.1259817518       294.0385818
     0.1260818278        294.043392
     0.1261819039        294.047918
     0.1262819799       294.0520865
     0.1263816355       294.0558581
      0.126481291       294.0592381
     0.1265805261       294.0622184
     0.1266797611       294.0648357
     0.1267785757       294.0671205
     0.1268773903       294.0691389
     0.1269762048       294.0709581
     0.1270745971       294.0726456
     0.1271729894       294.0742846
     0.1272709594       294.0759374
     0.1273689294       294.0776667
     0.1274668994        294.079508
     0.1275644453       294.0814608
     0.1276619912       294.0835089
     0.1277595371       294.0855951
      0.127856657        294.087623
     0.1279537769       294.0894913
     0.1280508969       294.0910764
      0.128147589       294.0922483
      0.128244281       294.0928991
     0.1283409731       294.0929334
     0.1284372355       294.0922909
     0.1285334978       294.0909484
     0.1286293304       294.0889359
      0.128725163       294.0863135
     0.1288209956       294.0831883
     0.1289163965       294.0797188
     0.1290117974       294.0760572
     0.1291067667        294.072398
     0.1292017359       294.0689008
     0.1292967052         294.06573
     0.1293912408       294.0630378
     0.1294857764       294.0609182
     0.1295803119       294.0594393
     0.1296744119       294.0586277
     0.1297685118       294.0584579
     0.1298626118       294.0588785
     0.1299567117       294.0598126
      0.130050372        294.061161
     0.1301440322        294.062831
     0.1302376924       294.0647304
     0.1303313526       294.0667781
      0.130424569       294.0688965
     0.1305177853        294.071041
     0.1306110016       294.0731656
      0.130704218       294.0752271
     0.1307969862       294.0771739
     0.1308897543       294.0789737
     0.1309825225       294.0805871
     0.1310752907        294.081982
     0.1311680589       294.0831397
     0.1312603723       294.0840563
     0.1313526858        294.084761
     0.1314449992       294.0853008
     0.1315373126       294.0857435
     0.1316296261       294.0861727
     0.1317219395       294.0866802
     0.1318137891       294.0873554
     0.1319056386       294.0882887
     0.1319974882       294.0895609
     0.1320893377       294.0912418
     0.1321811873       294.0933881
     0.1322725658       294.0960255
     0.1323639443        294.099184
     0.1324553228       294.1028597
     0.1325462279       294.1069965
      0.132637133        294.111546
      0.132728038       294.1164068
     0.1328184672       294.1214173
     0.1329088963       294.1264399
     0.1329993254        294.131291
     0.1330892761       294.1357539
     0.1331792267       294.1396643
     0.1332691774       294.1428464
      0.133359128       294.1451522
     0.1334485951       294.1464732
     0.1335380621       294.1467689
     0.1336275292       294.1460241
     0.1337169962       294.1442792
     0.1338059744       294.1416414
     0.1338949526       294.1382455
     0.1339839307       294.1342709
     0.1340729089       294.1299177
     0.1341613927       294.1254163
     0.1342498766       294.1209381
     0.1343383604       294.1166578
     0.1344268443       294.1127187
     0.1345153281       294.1092251
     0.1346038119       294.1062394
     0.1346917902       294.1037982
     0.1347797684       294.1018764
     0.1348677466       294.1004452
     0.1349557248        294.099461
      0.135043703       294.0988705
     0.1351316812       294.0986135
     0.1352191419       294.0986248
     0.1353066026       294.0988352
     0.1353940633       294.0991787
      0.135481524       294.0995953
     0.1355689847       294.1000368
     0.1356564454       294.1004729
     0.1357439061       294.1008968
     0.1358308335       294.1013172
     0.1359177609       294.1017722
     0.1360046883       294.1023198
     0.1360916157       294.1030291
     0.1361785431       294.1039776
     0.1362654705       294.1052362
     0.1363518512       294.1068623
     0.1364382319       294.1089111
     0.1365246126       294.1114054
     0.1366109933       294.1143407
      0.136697374       294.1176829
     0.1367837547       294.1213688
     0.1368701354       294.1253062
     0.1369559515       294.1293531
     0.1370417676       294.1334045
     0.1371275837       294.1373278
     0.1372133998       294.1409999
     0.1372992159       294.1443212
      0.137385032       294.1472252
     0.1374708481       294.1496858
     0.1375566642       294.1517186
     0.1376418926       294.1533681
     0.1377271209       294.1547353
     0.1378123492       294.1559276
     0.1378975775       294.1570634
     0.1379828059       294.1582595
     0.1380680342        294.159621
     0.1381532625       294.1612318
     0.1382384908       294.1631481
      0.138323106       294.1653758
     0.1384077212       294.1679157
     0.1384923364       294.1707212
     0.1385769515       294.1737147
     0.1386615667       294.1767927
     0.1387461819       294.1798347
     0.1388307971       294.1827132
     0.1389154122       294.1853059
     0.1389993864       294.1874922
     0.1390833605       294.1892141
     0.1391673347       294.1904205
     0.1392513088       294.1910962
      0.139335283        294.191263
     0.1394192571       294.1909748
     0.1395032313       294.1903092
     0.1395872054       294.1893574
     0.1396711796       294.1882133
     0.1397551537       294.1869641
     0.1398384452       294.1856931
     0.1399217366       294.1844418
      0.140005028       294.1832408
     0.1400883195       294.1821011
     0.1401716109       294.1810275
     0.1402549023       294.1800001
     0.1403381938       294.1789988
     0.1404214852       294.1780045
     0.1405040586       294.1770103
      0.140586632       294.1759969
     0.1406692054       294.1749598
     0.1407517788       294.1739006
     0.1408343522        294.172826
     0.1409169256       294.1717457
      0.140999499       294.1706694
     0.1410820724       294.1696051
     0.1411638883       294.1685683
     0.1412457041        294.167555
       0.14132752       294.1665742
     0.1414093358       294.1656417
     0.1414911517       294.1647819
     0.1415729675       294.1640281
     0.1416547834       294.1634213
     0.1417358049       294.1630107
     0.1418168264       294.1628365