# Region type :   patch explosionChamber
# Faces           : 37875
# Area            : 9.6770513364e+01
# Scale factor    : 1.0000000000e+00
# Time            	min(T)
1.19999040008e-06 	2.9314999947e+02
2.63996505619e-06 	2.9314999883e+02
4.36794459704e-06 	2.9314999806e+02
6.44150571252e-06 	2.9314999714e+02
8.92973776977e-06 	2.9314999604e+02
1.19155270705e-05 	2.9314999471e+02
1.54983886296e-05 	2.9314999311e+02
1.97977608653e-05 	2.9314999118e+02
2.49567412781e-05 	2.9314998885e+02
3.11471343486e-05 	2.9314998604e+02
3.8575237941e-05  	2.9314998263e+02
4.74889622518e-05 	2.9314997846e+02
5.81854314247e-05 	2.9314997336e+02
7.10206446266e-05 	2.9314996705e+02
8.64213168522e-05 	2.9314995919e+02
0.000104900983155 	2.9314994934e+02
0.000127076582718 	2.9314993692e+02
0.000153689668853 	2.9314991054e+02
0.000185621962467 	2.9314986332e+02
0.000223940714803 	2.9314980583e+02
0.000269901988382 	2.9314974973e+02
0.000325035134736 	2.9314971884e+02
0.000391180227766 	2.9314970270e+02
0.000470554339401 	2.9314967217e+02
0.000565803273364 	2.9314969639e+02
0.000679970009453 	2.9314977181e+02
0.00081697009276  	2.9314979095e+02
0.00098146183158  	2.9314980265e+02
0.00117911722742  	2.9314978381e+02
0.00141611180399  	2.9314974482e+02
0.00166654421737  	2.9314968595e+02
0.00191697663075  	2.9314964676e+02
0.00216740904413  	2.9314959942e+02
0.00241784145751  	2.9314953404e+02
0.00266827387089  	2.9314945667e+02
0.00291870628428  	2.9314937903e+02
0.00316913869766  	2.9314930856e+02
0.00341957111104  	2.9314924535e+02
0.00367000352442  	2.9314918598e+02
0.0039204359378   	2.9314912795e+02
0.00417086835118  	2.9314907266e+02
0.00442130076456  	2.9314902615e+02
0.00467173317795  	2.9314900117e+02
0.00492216559133  	2.9314902100e+02
0.00517259800471  	2.9314912356e+02
0.00542303041809  	2.9314936557e+02
0.00567346283147  	2.9314983140e+02
0.00592389524485  	2.9314994993e+02
0.00617432765824  	2.9313606403e+02
0.00642476007162  	2.9312513809e+02
0.006675192485    	2.9311297875e+02
0.00692562489838  	2.9310572950e+02
0.00717605731176  	2.9310110965e+02
0.00742648972514  	2.9309746724e+02
0.00767692213852  	2.9309567154e+02
0.00792735455191  	2.9309457020e+02
0.00817778696529  	2.9309477146e+02
0.00842821937867  	2.9309556699e+02
0.00867865179205  	2.9309932902e+02
0.00892908420543  	2.9310332190e+02
0.00917951661881  	2.9310961675e+02
0.0094299490322   	2.9311875629e+02
0.00968038144558  	2.9311143055e+02
0.00993081385896  	2.9309318212e+02
0.0101812462723   	2.9308506263e+02
0.0104316786857   	2.9308649254e+02
0.0106821110991   	2.9309126835e+02
0.0109325435125   	2.9308624498e+02
0.0111829759259   	2.9308524664e+02
0.0114334083392   	2.9308866052e+02
0.0116838407526   	2.9309732923e+02
0.011934273166    	2.9308910488e+02
0.0121847055794   	2.9305962142e+02
0.0124351379928   	2.9304027063e+02
0.0126855704062   	2.9304330185e+02
0.0129360028195   	2.9306350704e+02
0.0131864352329   	2.9309711168e+02
0.0134368676463   	2.9312920253e+02
0.0136873000597   	2.9312454107e+02
0.0139377324731   	2.9311237554e+02
0.0141881648864   	2.9309052585e+02
0.0144385972998   	2.9307120953e+02
0.0146890297132   	2.9305791248e+02
0.0149394621266   	2.9304875114e+02
0.01518989454     	2.9304434303e+02
0.0154403269534   	2.9304189327e+02
0.0156907593667   	2.9304155524e+02
0.0159411917801   	2.9304272447e+02
0.0161916241935   	2.9304451924e+02
0.0164420566069   	2.9304601794e+02
0.0166924890203   	2.9304665765e+02
0.0169429214336   	2.9304628787e+02
0.017193353847    	2.9304490946e+02
0.0174437862604   	2.9304248851e+02
0.0176942186738   	2.9304488667e+02
0.0179446510872   	2.9303223648e+02
0.0181950835005   	2.9302255397e+02
0.0184455159139   	2.9301835753e+02
0.0186959483273   	2.9301076022e+02
0.0189463807407   	2.9299859405e+02
0.0191968131541   	2.9302577001e+02
0.0194472455675   	2.9297602754e+02
0.0196976779808   	2.9298391295e+02
0.0199481103942   	2.9299258218e+02
0.0201985428076   	2.9297888268e+02
0.020448975221    	2.9297682681e+02
0.0206994076344   	2.9298232144e+02
0.0209498400477   	2.9298168867e+02
0.0212002724611   	2.9297693676e+02
0.0214507048745   	2.9297925922e+02
0.0217011372879   	2.9296578706e+02
0.0219515697013   	2.9295651741e+02
0.0222020021147   	2.9294910472e+02
0.022452434528    	2.9293258591e+02
0.0227028669414   	2.9291188085e+02
0.0229532993548   	2.9289411445e+02
0.0232037317682   	2.9287928492e+02
0.0234541641816   	2.9286610092e+02
0.0237045965949   	2.9285535693e+02
0.0239550290083   	2.9284876603e+02
0.0242054614217   	2.9284728469e+02
0.0244558938351   	2.9285025548e+02
0.0247063262485   	2.9285576536e+02
0.0249567586618   	2.9286150326e+02
0.0252071910752   	2.9286532319e+02
0.0254576234886   	2.9286565678e+02
0.025708055902    	2.9286151790e+02
0.0259584883154   	2.9285498670e+02
0.0262089207288   	2.9284203891e+02
0.0264593531421   	2.9282625984e+02
0.0267097855555   	2.9280755305e+02
0.0269602179689   	2.9278922566e+02
0.0272106503823   	2.9277653994e+02
0.0274610827957   	2.9276921830e+02
0.027711515209    	2.9276456769e+02
0.0279619476224   	2.9276866060e+02
0.0282123800358   	2.9276279179e+02
0.0284628124492   	2.9276089024e+02
0.0287132448626   	2.9276848263e+02
0.028963677276    	2.9276922058e+02
0.0292141096893   	2.9275843847e+02
0.0294645421027   	2.9274946798e+02
0.0297149745161   	2.9274218665e+02
0.0299654069295   	2.9273642421e+02
0.0302158393429   	2.9273190661e+02
0.0304662717562   	2.9272804393e+02
0.0307167041696   	2.9272401740e+02
0.030967136583    	2.9271919600e+02
0.0312175689964   	2.9271337189e+02
0.0314680014098   	2.9270654781e+02
0.0317184338231   	2.9269853529e+02
0.0319688662365   	2.9268889656e+02
0.0322192986499   	2.9267756827e+02
0.0324697310633   	2.9266517853e+02
0.0327201634767   	2.9265211254e+02
0.0329705958901   	2.9263793756e+02
0.0332210283034   	2.9262245526e+02
0.0334714607168   	2.9260678881e+02
0.0337218931302   	2.9259272505e+02
0.0339723255436   	2.9258128236e+02
0.034222757957    	2.9257217611e+02
0.0344731903703   	2.9256394074e+02
0.0347236227837   	2.9255467108e+02
0.0349740551971   	2.9254358526e+02
0.0352244876105   	2.9253200889e+02
0.0354749200239   	2.9252209147e+02
0.0357253524373   	2.9251445538e+02
0.0359757848506   	2.9250499712e+02
0.036226217264    	2.9247505852e+02
0.0364766496774   	2.9244000444e+02
0.0367270820908   	2.9240084614e+02
0.0369775145042   	2.9237604830e+02
0.0372279469175   	2.9235646621e+02
0.0374783793309   	2.9233502182e+02
0.0377288117443   	2.9231107129e+02
0.0379792441577   	2.9228456128e+02
0.0382296765711   	2.9225557121e+02
0.0384801089845   	2.9222740444e+02
0.0387305413978   	2.9220092611e+02
0.0389809738112   	2.9217707228e+02
0.0392314062246   	2.9215376706e+02
0.039481838638    	2.9212995843e+02
0.0397322710514   	2.9210764390e+02
0.0399827034647   	2.9208366193e+02
0.0402331358781   	2.9206336216e+02
0.0404835682915   	2.9203741355e+02
0.0407340007049   	2.9200193503e+02
0.0409844331183   	2.9196527458e+02
0.0412348655316   	2.9192725438e+02
0.041485297945    	2.9188856238e+02
0.0417357303584   	2.9184932993e+02
0.0419861627718   	2.9180970026e+02
0.0422365951852   	2.9176965925e+02
0.0424870275986   	2.9172908318e+02
0.0427374600119   	2.9168844466e+02
0.0429878924253   	2.9164879683e+02
0.0432383248387   	2.9161014571e+02
0.0434887572521   	2.9157169669e+02
0.0437391896655   	2.9153361717e+02
0.0439896220788   	2.9149579935e+02
0.0442400544922   	2.9145926169e+02
0.0444904869056   	2.9142514635e+02
0.044740919319    	2.9138899464e+02
0.0449913517324   	2.9135532326e+02
0.0452417841458   	2.9131505706e+02
0.0454922165591   	2.9127687879e+02
0.0457426489725   	2.9123699090e+02
0.0459930813859   	2.9119974756e+02
0.0462435137993   	2.9116307129e+02
0.0464939462127   	2.9112436447e+02
0.046744378626    	2.9108763525e+02
0.0469948110394   	2.9105096946e+02
0.0472452434528   	2.9101283889e+02
0.0474956758662   	2.9098044427e+02
0.0477461082796   	2.9094446967e+02
0.0479965406929   	2.9091308276e+02
0.0482469731063   	2.9087944974e+02
0.0484974055197   	2.9084605358e+02
0.0487478379331   	2.9081048677e+02
0.0489982703465   	2.9077244204e+02
0.0492487027599   	2.9073451881e+02
0.0494991351732   	2.9070317228e+02
0.0497495675866   	2.9067413631e+02
0.05              	2.9064117588e+02
0.05025           	2.9061042558e+02
0.0505            	2.9057108057e+02
0.05075           	2.9053309601e+02
0.051             	2.9049393410e+02
0.05125           	2.9046471470e+02
0.0515            	2.9043643094e+02
0.05175           	2.9041487955e+02
0.052             	2.9039462684e+02
0.05225           	2.9037679739e+02
0.0525            	2.9036309773e+02
0.05275           	2.9034287271e+02
0.053             	2.9030073348e+02
0.05325           	2.9026112002e+02
0.0535            	2.9022220952e+02
0.05375           	2.9018012691e+02
0.054             	2.9013062914e+02
0.05425           	2.9007293090e+02
0.0545            	2.9002243508e+02
0.05475           	2.8998158824e+02
0.055             	2.8994604871e+02
0.05525           	2.8990775081e+02
0.0555            	2.8986486637e+02
0.05575           	2.8981811448e+02
0.056             	2.8977264689e+02
0.05625           	2.8973096541e+02
0.0565            	2.8969060959e+02
0.05675           	2.8965197889e+02
0.057             	2.8961117314e+02
0.05725           	2.8956991928e+02
0.0575            	2.8953151899e+02
0.05775           	2.8949615720e+02
0.058             	2.8945823679e+02
0.05825           	2.8941565914e+02
0.0585            	2.8937039256e+02
0.05875           	2.8932631543e+02
0.059             	2.8928713996e+02
0.05925           	2.8925279802e+02
0.0595            	2.8921991931e+02
0.05975           	2.8918523002e+02
0.06              	2.8914709472e+02
0.06025           	2.8910674007e+02
0.0605            	2.8906772444e+02
0.06075           	2.8902966949e+02
0.061             	2.8899444763e+02
0.06125           	2.8896248055e+02
0.0615            	2.8893226962e+02
0.06175           	2.8890087148e+02
0.062             	2.8886633787e+02
0.06225           	2.8883111270e+02
0.0625            	2.8879781564e+02
0.06275           	2.8876526288e+02
0.063             	2.8873217599e+02
0.06325           	2.8869797173e+02
0.0635            	2.8866321853e+02
0.06375           	2.8862976211e+02
0.064             	2.8859665687e+02
0.06425           	2.8856125078e+02
0.0645            	2.8852883096e+02
0.06475           	2.8849242180e+02
0.065             	2.8845709196e+02
0.06525           	2.8842380443e+02
0.0655            	2.8838983112e+02
0.06575           	2.8835384088e+02
0.066             	2.8831925997e+02
0.06625           	2.8828701963e+02
0.0665            	2.8825599631e+02
0.06675           	2.8822665211e+02
0.067             	2.8819985907e+02
0.06725           	2.8817558145e+02
0.0675            	2.8815134180e+02
0.06775           	2.8812388992e+02
0.068             	2.8809504157e+02
0.06825           	2.8807055716e+02
0.0685            	2.8804924277e+02
0.06875           	2.8802834731e+02
0.069             	2.8800345587e+02
0.06925           	2.8797181839e+02
0.069497983871    	2.8793450573e+02
0.069742          	2.8789516246e+02
0.069984064       	2.8785805942e+02
0.070224191488    	2.8782540314e+02
0.0704623979561   	2.8779668132e+02
0.0706986987724   	2.8776928579e+02
0.0709331091823   	2.8774059586e+02
0.0711675195921   	2.8770944117e+02
0.0714000395954   	2.8767589194e+02
0.0716306844374   	2.8764215057e+02
0.0718613292793   	2.8761025039e+02
0.07209009896     	2.8758060122e+02
0.0723188686406   	2.8755402772e+02
0.07254576316     	2.8753094927e+02
0.0727707978882   	2.8750915837e+02
0.0729958326164   	2.8748844897e+02
0.0732190075534   	2.8746848824e+02
0.0734403380695   	2.8744781938e+02
0.0736616685856   	2.8742612928e+02
0.0738811546807   	2.8740372288e+02
0.074098811725    	2.8738218681e+02
0.0743164687694   	2.8736404922e+02
0.0745322967629   	2.8734974580e+02
0.0747481247564   	2.8733725710e+02
0.0749621236992   	2.8732102902e+02
0.0751743090916   	2.8730078143e+02
0.0753864944839   	2.8727953205e+02
0.075596866326    	2.8725990147e+02
0.075807238168    	2.8724437738e+02
0.0760157964596   	2.8723397237e+02
0.076222556835    	2.8722871153e+02
0.0764293172103   	2.8722840060e+02
0.0766342796694   	2.8722981930e+02
0.0768374598462   	2.8723178007e+02
0.0770406400229   	2.8723140525e+02
0.0772438201997   	2.8722855175e+02
0.0774452023219   	2.8722403773e+02
0.077646584444    	2.8721936262e+02
0.0778461685115   	2.8721573809e+02
0.0780457525789   	2.8721536743e+02
0.0782435385917   	2.8721938257e+02
0.0784413246045   	2.8722295190e+02
0.0786373125627   	2.8719914290e+02
0.0788333005208   	2.8717595037e+02
0.0790274904243   	2.8715131863e+02
0.0792216803278   	2.8712506611e+02
0.0794140721766   	2.8709625480e+02
0.0796064640254   	2.8706570556e+02
0.0797970578195   	2.8703412876e+02
0.0799876516137   	2.8700268210e+02
0.0801764473532   	2.8697120172e+02
0.0803652430927   	2.8694229558e+02
0.0805522407775   	2.8691404850e+02
0.080737457532    	2.8688478085e+02
0.0809226742865   	2.8685436084e+02
0.0811061101107   	2.8682157722e+02
0.0812895459349   	2.8678513824e+02
0.0814712008287   	2.8674829863e+02
0.0816528557225   	2.8671293690e+02
0.081832729686    	2.8667901665e+02
0.0820126036495   	2.8664695104e+02
0.0821906966827   	2.8661505451e+02
0.0823670264185   	2.8658187954e+02
0.0825433561543   	2.8654783618e+02
0.0827179225928   	2.8651314120e+02
0.0828924890313   	2.8647795175e+02
0.0830652921724   	2.8644154063e+02
0.0832380953135   	2.8640547704e+02
0.0834091351572   	2.8637010623e+02
0.0835801750009   	2.8633803559e+02
0.0837512148447   	2.8630746405e+02
0.0839204730234   	2.8627988437e+02
0.0840897312021   	2.8625544956e+02
0.0842589893808   	2.8623277094e+02
0.0844264469406   	2.8620869930e+02
0.0845939045003   	2.8618276884e+02
0.0847613620601   	2.8615509817e+02
0.084926999429    	2.8612455697e+02
0.0850926367979   	2.8609338462e+02
0.0852582741668   	2.8606414999e+02
0.0854239115358   	2.8603862415e+02
0.0855876878106   	2.8601501555e+02
0.0857514640855   	2.8599340260e+02
0.0859152403604   	2.8597253669e+02
0.0860790166353   	2.8595164690e+02
0.0862408885349   	2.8592846812e+02
0.0864027604345   	2.8590286422e+02
0.086564632334    	2.8587636660e+02
0.0867265042336   	2.8585051484e+02
0.0868864258694   	2.8581901588e+02
0.0870463475051   	2.8578752202e+02
0.0872062691409   	2.8575923918e+02
0.0873642164354   	2.8573210157e+02
0.08752216373     	2.8570958341e+02
0.0876801110245   	2.8569379058e+02
0.0878360589862   	2.8568193331e+02
0.087992006948    	2.8567112046e+02
0.0881479549097   	2.8565447015e+02
0.0883018775732   	2.8563734430e+02
0.0884558002367   	2.8561388587e+02
0.0886097229002   	2.8559369044e+02
0.0887636455637   	2.8557201786e+02
0.0889154881912   	2.8554757706e+02
0.0890673308187   	2.8551823248e+02
0.0892191734463   	2.8548992907e+02
0.0893689071484   	2.8546368181e+02
0.0895186408505   	2.8544191822e+02
0.0896683745527   	2.8542517021e+02
0.0898181082548   	2.8541207294e+02
0.0899656719033   	2.8539878021e+02
0.0901132355518   	2.8538468577e+02
0.0902607992003   	2.8536886021e+02
0.0904083628487   	2.8535073717e+02
0.0905559264972   	2.8533141986e+02
0.0907012199357   	2.8531133900e+02
0.0908465133742   	2.8529236212e+02
0.0909918068127   	2.8527460367e+02
0.0911371002512   	2.8525667210e+02
0.0912823936897   	2.8522030121e+02
0.0914253052686   	2.8519582548e+02
0.0915682168474   	2.8517152278e+02
0.0917111284263   	2.8514795200e+02
0.0918540400052   	2.8512682340e+02
0.091996951584    	2.8510850591e+02
0.0921398631629   	2.8509311474e+02
0.0922802227493   	2.8507903625e+02
0.0924205823356   	2.8506762887e+02
0.092560941922    	2.8505920717e+02
0.0927013015084   	2.8505267372e+02
0.0928416610948   	2.8505062452e+02
0.0929793214583   	2.8504321844e+02
0.0931169818219   	2.8503477113e+02
0.0932546421854   	2.8502502785e+02
0.093392302549    	2.8501415882e+02
0.0935299629126   	2.8500600760e+02
0.0936676232761   	2.8499221419e+02
0.0938023546958   	2.8497575514e+02
0.0939370861154   	2.8495663148e+02
0.0940718175351   	2.8493735765e+02
0.0942065489548   	2.8491988229e+02
0.0943412803744   	2.8490471145e+02
0.0944760117941   	2.8489402274e+02
0.0946075353228   	2.8488525317e+02
0.0947390588515   	2.8488309684e+02
0.0948705823802   	2.8488007147e+02
0.0950021059089   	2.8487894181e+02
0.0951336294376   	2.8488305176e+02
0.0952651529664   	2.8488608301e+02
0.0953966764951   	2.8488788801e+02
0.0955282000238   	2.8488902900e+02
0.0956559657374   	2.8488621222e+02
0.095783731451    	2.8487785804e+02
0.0959114971646   	2.8487364824e+02
0.0960392628782   	2.8486815386e+02
0.0961670285918   	2.8485972439e+02
0.0962947943054   	2.8484921331e+02
0.096422560019    	2.8484009787e+02
0.0965503257326   	2.8483297371e+02
0.0966780914462   	2.8482618187e+02
0.0968058571598   	2.8482166758e+02
0.0969336228734   	2.8482854260e+02
0.0970613885871   	2.8482746344e+02
0.0971838307293   	2.8482007630e+02
0.0973062728715   	2.8481070404e+02
0.0974287150137   	2.8480065443e+02
0.0975511571559   	2.8478981522e+02
0.0976735992981   	2.8477888948e+02
0.0977960414403   	2.8476989181e+02
0.0979184835825   	2.8476024283e+02
0.0980409257247   	2.8475687715e+02
0.0981633678669   	2.8475689123e+02
0.0982858100091   	2.8475843324e+02
0.0984082521513   	2.8476085487e+02
0.0985306942935   	2.8476357808e+02
0.0986531364357   	2.8476591118e+02
0.0987755785779   	2.8476917853e+02
0.0988980207201   	2.8477354178e+02
0.0990204628624   	2.8477810516e+02
0.0991429050046   	2.8478259737e+02
0.0992653471468   	2.8478696432e+02
0.099387789289    	2.8479153301e+02
0.0995102314312   	2.8479588981e+02
0.0996326735734   	2.8480036152e+02
0.0997551157156   	2.8480574089e+02
0.0998775578578   	2.8481360005e+02
0.1               	2.8482332528e+02
0.100118483412    	2.8483039346e+02
0.100236686058    	2.8483596799e+02
0.100354608603    	2.8483887681e+02
0.100472251711    	2.8484247407e+02
0.100589894818    	2.8484565341e+02
0.100707258489    	2.8484731003e+02
0.100824343385    	2.8484687479e+02
0.100941150171    	2.8484401906e+02
0.101057679505    	2.8484062344e+02
0.101173932048    	2.8483790618e+02
0.101289908456    	2.8483582490e+02
0.101405609386    	2.8483675746e+02
0.101521035492    	2.8483749567e+02
0.101635914555    	2.8483878484e+02
0.101750521393    	2.8484188470e+02
0.10186485665     	2.8484695599e+02
0.101978920971    	2.8485282347e+02
0.102092714997    	2.8486163031e+02
0.102206239369    	2.8486526703e+02
0.102319494726    	2.8486676490e+02
0.102432750083    	2.8486685679e+02
0.102545736425    	2.8486485830e+02
0.10265845439     	2.8486209125e+02
0.102770904617    	2.8485334279e+02
0.102883087742    	2.8484365532e+02
0.102995270866    	2.8483843039e+02
0.103107186888    	2.8483371646e+02
0.103218836443    	2.8483053641e+02
0.103329955596    	2.8482654263e+02
0.103440810809    	2.8482814141e+02
0.103551402707    	2.8483034248e+02
0.103661731917    	2.8483523561e+02
0.103771799062    	2.8483635386e+02
0.103881344562    	2.8483370348e+02
0.103990630475    	2.8481888733e+02
0.104099657417    	2.8479517270e+02
0.104208426001    	2.8476777699e+02
0.10431693684     	2.8473860864e+02
0.104425190545    	2.8470868310e+02
0.104533187723    	2.8468212592e+02
0.104640928985    	2.8465899315e+02
0.104748414935    	2.8463866416e+02
0.104855646179    	2.8461966843e+02
0.104962623321    	2.8460031726e+02
0.105069346962    	2.8457941570e+02
0.105175817704    	2.8455695037e+02
0.105282288446    	2.8453345076e+02
0.105388506288    	2.8450925916e+02
0.105494471831    	2.8448444761e+02
0.105600185675    	2.8445910610e+02
0.105705648417    	2.8443336522e+02
0.105811111159    	2.8440736566e+02
0.105916322799    	2.8438152918e+02
0.106021283935    	2.8435610930e+02
0.106125995164    	2.8433102649e+02
0.106230706392    	2.8430661488e+02
0.106335167714    	2.8428415498e+02
0.106439379724    	2.8426192482e+02
0.106543343018    	2.8423812577e+02
0.10664705819     	2.8421237160e+02
0.106750525831    	2.8418562356e+02
0.106853993473    	2.8415879154e+02
0.106957213584    	2.8413222588e+02
0.107060186758    	2.8410604474e+02
0.107162913584    	2.8408070071e+02
0.107265394652    	2.8405578264e+02
0.107367630549    	2.8403181571e+02
0.107469621864    	2.8400922832e+02
0.10757136918     	2.8398771219e+02
0.107672873082    	2.8396559596e+02
0.107774134151    	2.8394139306e+02
0.107875152969    	2.8391542265e+02
0.107975930115    	2.8388854344e+02
0.108076466167    	2.8386241548e+02
0.108177002219    	2.8383640788e+02
0.108277297178    	2.8381035577e+02
0.108377351621    	2.8378433694e+02
0.108477406064    	2.8375880376e+02
0.108577219992    	2.8373414531e+02
0.108676793983    	2.8370998348e+02
0.108776128612    	2.8368519336e+02
0.108875224457    	2.8365902971e+02
0.108974082091    	2.8363145966e+02
0.109072939724    	2.8360347798e+02
0.109171559146    	2.8357590334e+02
0.109269940932    	2.8354703478e+02
0.109368085652    	2.8351761841e+02
0.10946599388     	2.8348752194e+02
0.109563666184    	2.8345783023e+02
0.109661338487    	2.8342839227e+02
0.109758774868    	2.8339905072e+02
0.109855975895    	2.8336916472e+02
0.109952942137    	2.8334070883e+02
0.110049908378    	2.8331278051e+02
0.110146639835    	2.8328527722e+02
0.110243137075    	2.8325808546e+02
0.110339634315    	2.8323189990e+02
0.110435897339    	2.8320658538e+02
0.110531926714    	2.8318344290e+02
0.110627723009    	2.8316308729e+02
0.110723519303    	2.8314484503e+02
0.110819082516    	2.8312703969e+02
0.110914413216    	2.8310814107e+02
0.111009743915    	2.8308787464e+02
0.111104842101    	2.8306670631e+02
0.11119970834     	2.8304538150e+02
0.111294343197    	2.8302278771e+02
0.111388978055    	2.8300074801e+02
0.111483381532    	2.8297711421e+02
0.111577554193    	2.8295336191e+02
0.111671726854    	2.8292884719e+02
0.1117656687      	2.8290422257e+02
0.111859380297    	2.8287867527e+02
0.111953091893    	2.8285650922e+02
0.11204657324     	2.8283452216e+02
0.112139824902    	2.8281244784e+02
0.112233076565    	2.8278872744e+02
0.112326328228    	2.8276675423e+02
0.11241934964     	2.8274792298e+02
0.112512371052    	2.8272612106e+02
0.112605162212    	2.8270277466e+02
0.112697953373    	2.8268055853e+02
0.112790514283    	2.8265765465e+02
0.112883075193    	2.8263232412e+02
0.112975405851    	2.8260733101e+02
0.11306773651     	2.8258192083e+02
0.113160067169    	2.8255680740e+02
0.113252167001    	2.8252969075e+02
0.113344266833    	2.8250426172e+02
0.113436135838    	2.8247344586e+02
0.113528004844    	2.8244308042e+02
0.113619643023    	2.8241748826e+02
0.113711050955    	2.8239116271e+02
0.113802458887    	2.8236962933e+02
0.113893636572    	2.8235036762e+02
0.113984584591    	2.8232943306e+02
0.11407553261     	2.8230742228e+02
0.114166250962    	2.8228298128e+02
0.114256740227    	2.8226177558e+02
0.114347229492    	2.8224102286e+02
0.114437489671    	2.8221977878e+02
0.114527521342    	2.8219935168e+02
0.114617325086    	2.8218129412e+02
0.114707128829    	2.8216604383e+02
0.114796704644    	2.8214961929e+02
0.11488628046     	2.8213285016e+02
0.114975628346    	2.8211519079e+02
0.115064748885    	2.8209883996e+02
0.115153869424    	2.8208204079e+02
0.115242762614    	2.8206775566e+02
0.115331655804    	2.8205586429e+02
0.115420321646    	2.8204743497e+02
0.115508987488    	2.8204253937e+02
0.115597425981    	2.8204084166e+02
0.11568563771     	2.8204169246e+02
0.115773849438    	2.8204488062e+02
0.115861834401    	2.8205178573e+02
0.115949593181    	2.8206322470e+02
0.116037126361    	2.8207013911e+02
0.11612465954     	2.8207711723e+02
0.116211967119    	2.8208278121e+02
0.116299274697    	2.8208770585e+02
0.116386356675    	2.8209177469e+02
0.116473213634    	2.8209496177e+02
0.116560070594    	2.8209750758e+02
0.116646702535    	2.8209978732e+02
0.116733334477    	2.8210243135e+02
0.1168197414      	2.8210614209e+02
0.116906148324    	2.8211164797e+02
0.116992330229    	2.8211911508e+02
0.117078287702    	2.8212850036e+02
0.117164245176    	2.8213962713e+02
0.117249978217    	2.8215276033e+02
0.117335711258    	2.8216818440e+02
0.117421219868    	2.8218596359e+02
0.117506504632    	2.8220609404e+02
0.117591789397    	2.8222862616e+02
0.117676850317    	2.8225334070e+02
0.117761911238    	2.8227997552e+02
0.117846748313    	2.8230788629e+02
0.117931585389    	2.8233717913e+02
0.11801619862     	2.8236837180e+02
0.118100811851    	2.8240122966e+02
0.118185201238    	2.8243394209e+02
0.118269590625    	2.8246526065e+02
0.118353980011    	2.8249476406e+02
0.118438144958    	2.8252260937e+02
0.118522309905    	2.8254932274e+02
0.118606250412    	2.8257532299e+02
0.118690190919    	2.8260116330e+02
0.118773906986    	2.8262720449e+02
0.118857623053    	2.8265376567e+02
0.11894133912     	2.8268094367e+02
0.119024830144    	2.8270864058e+02
0.119108321168    	2.8273695664e+02
0.119191587148    	2.8276607233e+02
0.119274853129    	2.8279682492e+02
0.119357894066    	2.8282984399e+02
0.119440935004    	2.8286549868e+02
0.119523750898    	2.8290346739e+02
0.119606566792    	2.8294352985e+02
0.119689157644    	2.8298538497e+02
0.119771748495    	2.8302885925e+02
0.119854114303    	2.8307300238e+02
0.119936480111    	2.8311665220e+02
0.120018620875    	2.8316029919e+02
0.12010076164     	2.8320490247e+02
0.120182677362    	2.8324988038e+02
0.120264593083    	2.8329449334e+02
0.120346283761    	2.8333809372e+02
0.12042797444     	2.8338078479e+02
0.120509440075    	2.8342287726e+02
0.12059090571     	2.8346518250e+02
0.120672371345    	2.8350839162e+02
0.120753611314    	2.8353825500e+02
0.120834851282    	2.8353391671e+02
0.120915865584    	2.8352834103e+02
0.120996879886    	2.8350936166e+02
0.121077668522    	2.8349050445e+02
0.121158457157    	2.8347162995e+02
0.121239020126    	2.8345277748e+02
0.121319583095    	2.8343398143e+02
0.121399920397    	2.8341539110e+02
0.121480257699    	2.8339707123e+02
0.121560369335    	2.8337913805e+02
0.121640480971    	2.8336158682e+02
0.12172036694     	2.8334443243e+02
0.121800252909    	2.8332755105e+02
0.121879913211    	2.8331083892e+02
0.121959573514    	2.8329410560e+02
0.122039233816    	2.8327724213e+02
0.122118667811    	2.8326024265e+02
0.122198101806    	2.8324311889e+02
0.122277535801    	2.8322597169e+02
0.122356742842    	2.8320890113e+02
0.122435949882    	2.8319186324e+02
0.122515156923    	2.8317477701e+02
0.122594136357    	2.8315753164e+02
0.122673115791    	2.8313994257e+02
0.122752095225    	2.8312191607e+02
0.122830846395    	2.8310346618e+02
0.122909597565    	2.8308462658e+02
0.122988348735    	2.8306557420e+02
0.123067099905    	2.8304655380e+02
0.123145621479    	2.8302788077e+02
0.123224143054    	2.8300978708e+02
0.123302664628    	2.8299250782e+02
0.123381186203    	2.8297617726e+02
0.123459707778    	2.8296080743e+02
0.123537997725    	2.8294630964e+02
0.123616287673    	2.8293243126e+02
0.12369457762     	2.8291888049e+02
0.123772867568    	2.8290531349e+02
0.123851157515    	2.8289139868e+02
0.123929213762    	2.8287692875e+02
0.124007270008    	2.8286182007e+02
0.124085326254    	2.8284623120e+02
0.124163148097    	2.8283049320e+02
0.12424096994     	2.8281490474e+02
0.124318791783    	2.8279971305e+02
0.124396378515    	2.8278500029e+02
0.124473965247    	2.8277059463e+02
0.124551551979    	2.8275623272e+02
0.124628902884    	2.8274161949e+02
0.12470625379     	2.8272642898e+02
0.124783604696    	2.8271043397e+02
0.124860719055    	2.8269349646e+02
0.124937833414    	2.8267550133e+02
0.125014947772    	2.8265650280e+02
0.125092062131    	2.8263707490e+02
0.125168938483    	2.8261738535e+02
0.125245814834    	2.8259785779e+02
0.125322691185    	2.8257910168e+02
0.12539932879     	2.8256169419e+02
0.125475966395    	2.8254594523e+02
0.125552604       	2.8253200603e+02
0.125629002113    	2.8251984515e+02
0.125705400225    	2.8250924592e+02
0.125781798338    	2.8249995009e+02
0.125857956205    	2.8249164957e+02
0.125934114072    	2.8248396268e+02
0.126010271939    	2.8247650792e+02
0.1260861888      	2.8246889070e+02
0.12616210566     	2.8246071916e+02
0.126238022521    	2.8245166776e+02
0.126313697609    	2.8244150736e+02
0.126389372696    	2.8243007889e+02
0.126465047784    	2.8241737524e+02
0.126540480323    	2.8240353961e+02
0.126615912862    	2.8238876816e+02
0.126691345401    	2.8237337236e+02
0.12676653461     	2.8235774970e+02
0.126841723818    	2.8234224851e+02
0.126916913027    	2.8232717399e+02
0.126991858114    	2.8231224511e+02
0.127066803202    	2.8229838374e+02
0.127141748289    	2.8228548093e+02
0.127216448458    	2.8227356416e+02
0.127291148627    	2.8226253519e+02
0.127365848796    	2.8225215858e+02
0.127440303241    	2.8224207581e+02
0.127514757686    	2.8223191144e+02
0.12758921213     	2.8222148628e+02
0.127663420037    	2.8221083923e+02
0.127737627944    	2.8220010658e+02
0.127811835851    	2.8218947084e+02
0.127885796398    	2.8217903190e+02
0.127959756945    	2.8216870391e+02
0.128033717493    	2.8215830245e+02
0.12810742985     	2.8214758243e+02
0.128181142207    	2.8213626054e+02
0.128254854565    	2.8212416032e+02
0.128328566922    	2.8211166787e+02
0.128402029407    	2.8209866043e+02
0.128475491892    	2.8208533641e+02
0.128548954377    	2.8207211871e+02
0.128622416862    	2.8205947417e+02
0.128695627763    	2.8204782387e+02
0.128768838665    	2.8203739619e+02
0.128842049566    	2.8202830059e+02
0.128915260467    	2.8202054920e+02
0.128988218043    	2.8201438743e+02
0.129061175619    	2.8200978766e+02
0.129134133196    	2.8200654502e+02
0.129207090772    	2.8200431361e+02
0.129280048348    	2.8200323224e+02
0.129352749933    	2.8200272952e+02
0.129425451518    	2.8200216155e+02
0.129498153102    	2.8200127273e+02
0.129570854687    	2.8200013250e+02
0.129643556272    	2.8199886764e+02
0.129715999132    	2.8199743594e+02
0.129788441992    	2.8199561916e+02
0.129860884852    	2.8199309565e+02
0.129933327713    	2.8198955595e+02
0.130005770573    	2.8198475881e+02
0.130078213433    	2.8197854606e+02
0.130150393819    	2.8197084956e+02
0.130222574205    	2.8196168991e+02
0.130294754592    	2.8195126917e+02
0.130366934978    	2.8193997653e+02