# Probe 0 (6 0.005 0.305)
# Probe 1 (6.3 0.005 0.305)
# Probe 2 (6.8 0.005 0.305)
# Probe 3 (8.3 0.005 0.305)
#           Probe                 0                 1                 2                 3
#            Time
    1.1999904e-06            101325            101325            101325            101325
  2.639965056e-06            101325            101325            101325            101325
  4.367944597e-06            101325            101325            101325            101325
  6.441505713e-06            101325            101325            101325            101325
   8.92973777e-06            101325            101325            101325            101325
  1.191552707e-05            101325            101325            101325            101325
  1.549838863e-05            101325            101325            101325            101325
  1.979776087e-05            101325            101325            101325            101325
  2.495674128e-05            101325            101325            101325            101325
  3.114713435e-05            101325            101325            101325            101325
  3.857523794e-05            101325            101325            101325            101325
  4.748896225e-05            101325            101325            101325            101325
  5.818543142e-05            101325            101325            101325            101325
  7.102064463e-05            101325            101325            101325            101325
  8.642131685e-05            101325            101325            101325            101325
  0.0001049009832            101325            101325            101325            101325
  0.0001270765827            101325            101325            101325            101325
  0.0001536896689            101325            101325            101325            101325
  0.0001856219625            101325            101325            101325            101325
  0.0002239407148            101325            101325            101325            101325
  0.0002699019884            101325            101325            101325            101325
  0.0003250351347            101325            101325            101325            101325
  0.0003911802278            101325            101325            101325            101325
  0.0004705543394            101325            101325            101325            101325
  0.0005658032734            101325            101325            101325            101325
  0.0006799700095            101325            101325            101325            101325
  0.0008169700928            101325            101325            101325            101325
  0.0009814618316            101325            101325            101325            101325
   0.001179117227            101325            101325            101325            101325
   0.001416111804            101325            101325            101325            101325
   0.001666544217            101325            101325            101325            101325
   0.001916976631       101324.9999            101325            101325            101325
   0.002167409044       101324.9996            101325            101325            101325
   0.002417841458        101324.999       101324.9999            101325            101325
   0.002668273871       101324.9976       101324.9998            101325            101325
   0.002918706284        101324.995       101324.9995            101325            101325
   0.003169138698       101324.9905       101324.9989            101325            101325
   0.003419571111        101324.984       101324.9977            101325            101325
   0.003670003524       101324.9753       101324.9956       101324.9999            101325
   0.003920435938       101324.9652       101324.9922       101324.9998            101325
   0.004170868351       101324.9548       101324.9872       101324.9995            101325
   0.004421300765       101324.9457       101324.9804       101324.9989            101325
   0.004671733178       101324.9392       101324.9721        101324.998            101325
   0.004922165591       101324.9361        101324.963       101324.9965            101325
   0.005172598005       101324.9362       101324.9541       101324.9941            101325
   0.005423030418       101324.9387       101324.9465       101324.9906            101325
   0.005673462831       101324.9432       101324.9413       101324.9859            101325
   0.005923895245       101324.9501       101324.9392         101324.98            101325
   0.006174327658       101324.9617       101324.9405       101324.9731            101325
   0.006424760072       101324.9828       101324.9453       101324.9657            101325
   0.006675192485        101325.021       101324.9541       101324.9585            101325
   0.006925624898        101325.085       101324.9686       101324.9525            101325
   0.007176057312        101325.187       101324.9925       101324.9486       101324.9999
   0.007426489725       101325.3471       101325.0317       101324.9477       101324.9998
   0.007676922139       101325.5957       101325.0946       101324.9509       101324.9997
   0.007927354552       101325.9747       101325.1929       101324.9593       101324.9995
   0.008177786965       101326.5391       101325.3444       101324.9745       101324.9992
   0.008428219379       101327.3546       101325.5748       101324.9994       101324.9988
   0.008678651792       101328.4947       101325.9196       101325.0384       101324.9981
   0.008929084205       101330.0327       101326.4241       101325.0975        101324.997
   0.009179516619       101332.0322       101327.1429       101325.1861       101324.9956
   0.009429949032       101334.5344       101328.1357       101325.3182       101324.9938
   0.009680381446       101337.5451       101329.4628       101325.5136       101324.9914
   0.009930813859       101341.0233       101331.1773        101325.799       101324.9885
    0.01018124627        101344.873       101333.3161        101326.208       101324.9852
    0.01043167869       101348.9278       101335.8928       101326.7798       101324.9815
     0.0106821111       101352.9303       101338.8834       101327.5577       101324.9779
    0.01093254351       101356.5596       101342.2142       101328.5858       101324.9748
    0.01118297593       101359.4639       101345.7432       101329.9057       101324.9728
    0.01143340834       101361.2766       101349.2654       101331.5511       101324.9731
    0.01168384075       101361.6551       101352.5208       101333.5399       101324.9769
    0.01193427317       101360.3577       101355.2273       101335.8625       101324.9858
    0.01218470558       101357.3327       101357.0714        101338.474       101325.0022
    0.01243513799       101352.7741       101357.7497       101341.2804       101325.0285
    0.01268557041       101347.1236       101357.0388       101344.1432       101325.0674
    0.01293600282       101341.0258       101354.8561       101346.8883        101325.123
    0.01318643523       101335.2381       101351.3004       101349.3065       101325.2012
    0.01343686765       101330.4672       101346.6682       101351.1596       101325.3105
    0.01368730006       101327.2304       101341.4336       101352.2126       101325.4622
    0.01393773247       101325.7938        101336.191       101352.2711       101325.6705
    0.01418816489       101326.1797        101331.572       101351.2192       101325.9521
     0.0144385973       101328.2563       101328.1422       101349.0545       101326.3261
    0.01468902971       101331.8487       101326.3058       101345.9106       101326.8126
    0.01493946213       101336.7881       101326.2507       101342.0596       101327.4321
    0.01518989454       101342.8887       101327.9685       101337.8962       101328.2034
    0.01544032695       101349.9021       101331.3063       101333.8999       101329.1405
    0.01569075937       101357.4768       101336.0102       101330.5757       101330.2529
    0.01594119178       101365.1228       101341.7531       101328.3708       101331.5363
    0.01619162419       101372.2251       101348.1545       101327.5966       101332.9772
    0.01644205661       101377.9119       101354.8003       101328.3726       101334.5415
    0.01669248902       101381.2808       101361.2174       101330.6309       101336.1795
    0.01694292143       101381.6072       101366.7986       101334.1559       101337.8222
    0.01719335385       101378.5494       101370.8946       101338.6105       101339.3793
    0.01744378626       101372.3492       101372.8506       101343.5557       101340.7465
    0.01769421867         101363.89        101372.139       101348.5242       101341.8092
    0.01794465109       101354.5402       101368.5851       101352.9954       101342.4611
     0.0181950835       101345.8372       101362.5195       101356.4747       101342.6134
    0.01844551591       101339.1483       101354.7745       101358.5339       101342.2161
    0.01869594833       101335.4465       101346.5485       101358.8673       101341.2685
    0.01894638074       101335.2573       101339.2046       101357.3598       101339.8263
    0.01919681315       101338.7051       101334.0465       101354.1471       101337.9906
    0.01944724557       101345.6545       101332.0916       101349.6413       101335.9136
    0.01969767798       101355.7916       101333.9247       101344.5126       101333.7984
    0.01994811039       101368.5531       101339.5597       101339.6281       101331.8669
    0.02019854281       101382.9547       101348.4724       101335.9389       101330.3263
    0.02044897522        101397.451       101359.7483       101334.3384       101329.3433
    0.02069940763       101409.9575       101372.2635       101335.4632       101329.0051
    0.02094984005       101418.1095       101384.8017       101339.5053       101329.3246
    0.02120027246        101419.823       101396.0782       101346.1924       101330.2289
    0.02145070487       101413.7305       101404.7748       101354.8201       101331.5843
    0.02170113729       101400.1092       101409.3699       101364.3608       101333.2128
     0.0219515697       101381.0378       101408.5753       101373.6581       101334.9155
    0.02220200211       101360.0137       101401.6673       101381.6481       101336.5031
    0.02245243453       101341.1141       101388.8295       101387.5256       101337.8239
    0.02270286694       101327.8807       101371.4999       101390.5903       101338.7857
    0.02295329935       101322.3265       101352.3576       101390.3602       101339.3716
    0.02320373177       101324.4877        101334.768       101386.5678       101339.6454
    0.02345416418       101332.6712       101321.8831       101379.2411       101339.7311
    0.02370459659       101344.1889       101315.8041       101368.8428        101339.819
    0.02395502901       101356.2022       101317.1619       101356.3639       101340.1364
    0.02420546142       101366.4573       101325.0923       101343.2744       101340.8736
    0.02445589384       101373.6191        101337.323       101331.3165       101342.1228
    0.02470632625        101377.355       101350.9101       101322.2645       101343.8793
    0.02495675866       101378.1504       101363.0658       101317.6018       101346.0438
    0.02520719108        101376.932       101371.8866       101318.0103       101348.4309
    0.02545762349        101374.638       101376.6571       101323.2217       101350.7866
     0.0257080559       101372.1516       101377.6867        101332.076       101352.8173
    0.02595848832       101370.2468       101375.9696       101342.7815       101354.1992
    0.02620892073       101369.5423       101372.7873       101353.3975       101354.7116
    0.02645935314       101370.4655       101369.3665       101362.2719       101354.2823
    0.02670978556       101373.2017       101366.6592       101368.3854        101352.992
    0.02696021797       101377.6374       101365.2588       101371.4366       101350.9948
    0.02721065038       101383.3669       101365.4235       101371.7728       101348.4796
     0.0274610828       101389.6838       101367.1504        101370.158        101345.663
    0.02771151521       101395.6575       101370.2856        101367.479       101342.7776
    0.02796194762       101400.2947       101374.4895       101364.5512       101340.0463
    0.02821238004        101402.746       101379.2389       101362.0148       101337.6797
    0.02846281245       101402.5111       101383.8471       101360.3079        101335.825
    0.02871324486        101399.582       101387.5677       101359.6888       101334.5155
    0.02896367728       101394.4653       101389.7763       101360.2741       101333.7357
    0.02921410969       101388.0524       101390.1117       101362.0367          101333.5
     0.0294645421       101381.3728       101388.5223       101364.7835       101333.8567
    0.02971497452       101375.3291       101385.2568       101368.1292       101334.8744
    0.02996540693       101370.5428       101380.8098       101371.5218       101336.5996
    0.03021583934       101367.2235        101375.818       101374.3518       101339.0242
    0.03046627176       101365.2245       101370.9244       101376.0932       101342.0344
    0.03071670417       101364.2038       101366.6406       101376.3911       101345.3485
    0.03096713658        101363.805       101363.2626       101375.1189       101348.5945
      0.031217569       101363.7937       101360.8651       101372.4055       101351.3703
    0.03146800141       101364.1212       101359.3657       101368.6093       101353.3285
    0.03171843382       101364.9071       101358.6291       101364.2412       101354.2257
    0.03196886624       101366.3547       101358.5472       101359.8602       101353.9643
    0.03221929865       101368.6291        101359.083       101355.9762       101352.6164
    0.03246973106        101371.744       101360.2616       101352.9783       101350.4338
    0.03272016348       101375.4992       101362.1135       101351.1325       101347.8164
    0.03297059589       101379.4946       101364.6006       101350.5319       101345.2678
     0.0332210283       101383.2144       101367.5607       101351.1054       101343.2736
    0.03347146072       101386.1378        101370.697       101352.6486       101342.2147
    0.03372189313       101387.9122       101373.6188       101354.8645       101342.3081
    0.03397232554       101388.3649        101375.921       101357.4058       101343.5719
    0.03422275796         101387.53       101377.2674       101359.9195       101345.8397
    0.03447319037       101385.6322       101377.5367       101362.0867       101348.7748
    0.03472362278       101383.0631       101376.7553       101363.6664       101351.8763
     0.0349740552       101380.3469       101375.0673       101364.5119       101354.6081
    0.03522448761       101378.0833       101372.7658       101364.5686       101356.5029
    0.03547492002       101376.8496       101370.3191       101363.8596       101357.2484
    0.03572535244       101377.0656       101368.3037       101362.5041       101356.7511
    0.03597578485       101378.9262       101367.2658       101360.7474       101355.1442
    0.03622621726       101382.3371       101367.5814       101358.9544       101352.7484
    0.03647664968        101386.932       101369.3966       101357.5509       101349.9677
    0.03672708209       101392.1212       101372.7987       101356.9284       101347.2031
     0.0369775145       101397.2038       101377.5726       101357.3603       101344.7909
    0.03722794692       101401.4856       101383.2287       101358.9868       101342.9544
    0.03747837933       101404.4082       101389.1128       101361.8421       101341.7733
    0.03772881174       101405.6775       101394.5129       101365.7719       101341.1829
    0.03797924416       101405.3272       101398.7667       101370.4583       101341.0212
    0.03822967657       101403.6799       101401.3749       101375.4655       101341.0739
    0.03848010898       101401.2187        101402.096       101380.2935       101341.1471
     0.0387305414       101398.4164        101400.985       101384.4467       101341.1251
    0.03898097381       101395.6144       101398.3472        101387.511       101340.9947
    0.03923140622       101392.9599       101394.6376       101389.2098       101340.8382
    0.03948183864       101390.4082       101390.3474        101389.416       101340.8061
    0.03973227105       101387.8104       101385.8792       101388.2206       101341.0806
    0.03998270346       101385.0152       101381.4961       101385.8295       101341.8232
    0.04023313588       101381.9361       101377.3419       101382.5307       101343.1381
    0.04048356829        101378.568       101373.4958       101378.6628       101345.0111
     0.0407340007       101374.9775       101370.0155       101374.5655       101347.3795
    0.04098443312        101371.298       101366.9479       101370.5262       101350.1163
    0.04123486553       101367.7414       101364.3205       101366.7484       101353.0187
    0.04148529795       101364.6071       101362.1375       101363.3499       101355.8366
    0.04173573036       101362.2676       101360.3909       101360.3895       101358.3318
    0.04198616277       101361.1434       101359.0827       101357.9021       101360.3194
    0.04223659519        101361.576        101358.257        101355.921       101361.6884
     0.0424870276       101363.7515        101358.054       101354.4732       101362.3913
    0.04273746001       101367.6915       101358.5924       101353.5542       101362.4705
    0.04298789243        101373.245       101359.9773       101353.1165       101362.0071
    0.04323832484       101380.0548       101362.3182       101353.0802       101361.1258
    0.04348875725       101387.5292       101365.7024        101353.313       101359.9541
    0.04373918967       101394.8778        101370.124        101353.698        101358.598
    0.04398962208       101401.2466       101375.4102       101354.2106       101357.1377
    0.04424005449       101405.9204       101381.1786       101354.9447       101355.6383
    0.04449048691       101408.5021       101386.8433       101356.0846       101354.1421
    0.04474091932       101409.0325       101391.7617       101357.8436       101352.6514
    0.04499135173       101407.8993       101395.3142       101360.3735       101351.1854
    0.04524178415       101405.6055       101397.0729       101363.6883       101349.7508
    0.04549221656       101402.6071       101396.9546       101367.6172       101348.3462
    0.04574264897       101399.2443       101395.2511       101371.8113       101346.9756
    0.04599308139       101395.7745       101392.5379       101375.8069       101345.6677
     0.0462435138       101392.4542       101389.4945       101379.1285       101344.4776
    0.04649394621       101389.5882        101386.703       101381.4101       101343.4702
    0.04674437863       101387.5139       101384.5093       101382.4928       101342.6958
    0.04699481104        101386.504       101383.0001       101382.4653       101342.1755
    0.04724524345       101386.6201       101382.0964       101381.6261       101341.8973
    0.04749567587       101387.7022       101381.6775       101380.3756        101341.824
    0.04774610828       101389.4938       101381.6437       101379.0799        101341.909
    0.04799654069       101391.8031       101381.9847       101377.9574       101342.1167
    0.04824697311       101394.5991       101382.7853       101377.0356       101342.4367
    0.04849740552       101397.9912       101384.1659       101376.1934       101342.8946
    0.04874783793       101402.1077       101386.2028       101375.2681       101343.5509
    0.04899827035       101406.9468       101388.8851       101374.1792        101344.487
    0.04924870276       101412.2757       101392.1227       101373.0107       101345.7767
    0.04949913517       101417.6258       101395.7355       101372.0125       101347.4367
    0.04974956759       101422.3687       101399.4838       101371.5231       101349.4345
             0.05       101425.8199       101403.1056       101371.8517       101351.6772
          0.05025       101427.3183       101406.3322       101373.1799       101354.0077
           0.0505       101426.2876       101408.9088       101375.4765       101356.2375
          0.05075       101422.2766       101410.5643       101378.5121       101358.1712
            0.051       101415.0767        101410.997       101381.9537       101359.6489
          0.05125       101404.9504       101409.8554       101385.4612       101360.5785
           0.0515       101392.7159       101406.7513        101388.743       101360.9452
          0.05175       101379.7427       101401.3769        101391.579       101360.8039
            0.052       101367.7846       101393.5845       101393.7529       101360.2542
          0.05225        101358.611       101383.5722       101395.0031       101359.4189
           0.0525       101353.5467       101372.0698       101394.9693        101358.415
          0.05275       101353.1152       101360.3901        101393.228       101357.3443
            0.053       101356.9122       101350.2649       101389.3836       101356.2976
          0.05325       101363.7891        101343.476       101383.2128        101355.364
           0.0535       101372.2927       101341.3767       101374.8295       101354.6343
          0.05375       101381.0794       101344.4646       101364.8112       101354.1983
            0.054       101389.1879       101352.1809       101354.2274        101354.149
          0.05425       101396.1159       101363.0115       101344.5319       101354.5614
           0.0545       101401.7864       101374.8837       101337.3239       101355.4682
          0.05475       101406.4239       101385.7513       101334.0072       101356.8458
            0.055       101410.3874       101394.1609       101335.3979       101358.6011
          0.05525       101414.0162       101399.5945       101341.3835       101360.5685
           0.0555       101417.5518       101402.4863       101350.9351       101362.5257
          0.05575       101421.0661       101403.9373        101362.334       101364.2205
            0.056       101424.4016        101405.257       101373.5933       101365.3994
          0.05625       101427.2892       101407.4472       101382.9736       101365.8344
           0.0565        101429.316       101410.8381       101389.4322       101365.3461
          0.05675       101429.9843       101415.0234       101392.8651       101363.8239
            0.057       101428.8034       101419.0632       101394.0498       101361.2432
          0.05725       101425.3665        101421.895       101394.2309       101357.6764
           0.0575       101419.4647       101422.4926        101394.633       101353.2869
          0.05775       101411.2684       101420.0701       101396.0263       101348.3588
            0.058       101401.3996       101414.3587       101398.4625       101343.3143
          0.05825       101390.9312       101405.7251       101401.2835       101338.6557
           0.0585       101381.2176        101395.079       101403.3849       101334.9196
          0.05875       101373.5586       101383.6735        101403.563       101332.5992
            0.059       101368.8159       101372.8729       101400.9722       101332.0673
          0.05925       101367.1516       101363.9224        101395.447        101333.497
           0.0595       101368.0324       101357.7298       101387.5635       101336.8416
          0.05975       101370.5281        101354.695        101378.443       101341.7851
             0.06       101373.7805       101354.6502       101369.4089        101347.814
          0.06025       101377.4135       101356.9645       101361.6302       101354.2768
           0.0605       101381.6839       101360.8143       101355.8583       101360.4745
          0.06075       101387.3019       101365.5317        101352.321       101365.7863
            0.061       101395.0339       101370.8821       101350.7816       101369.7834
          0.06125       101405.3009       101377.1283       101350.7244       101372.2953
           0.0615       101417.6883       101384.8243       101351.6071       101373.4013
          0.06175       101430.9278       101394.3977       101353.1009       101373.3625
            0.062       101443.2034       101405.7877       101355.2433       101372.5207
          0.06225       101452.6351        101418.175       101358.4411       101371.1981
           0.0625       101457.7454       101429.9821        101363.302        101369.629
          0.06275       101457.7966       101439.2799       101370.3136       101367.9104
            0.063        101452.932       101444.3904       101379.6191       101366.0012
          0.06325        101444.103       101444.4159       101390.6928       101363.7696
           0.0635       101432.7978       101439.4912       101402.3183       101361.0779
          0.06375       101420.6639        101430.749       101412.8288       101357.8492
            0.064       101409.1859        101419.866       101420.5161       101354.1151
          0.06425       101399.5056       101408.5808       101424.0712       101350.0412
           0.0645       101392.3513       101398.3346        101423.062       101345.9148
          0.06475       101388.0059       101390.0787       101417.9284       101342.1003
            0.065       101386.4005       101384.2097       101409.8674       101338.9779
          0.06525       101387.0677        101380.638       101400.5265       101336.8856
           0.0655       101389.3028        101378.986       101391.5589       101336.0816
          0.06575       101392.3967       101378.8263       101384.1857       101336.7278
            0.066       101395.8435       101379.8091       101378.9407       101338.8911
          0.06625       101399.4722       101381.7223        101375.685       101342.5678
           0.0665       101403.4143       101384.4766       101373.8563       101347.6265
          0.06675       101407.9126       101388.0288       101372.8152       101353.7489
            0.067       101413.1581       101392.2956       101372.1394        101360.508
          0.06725       101418.9874       101397.1038       101371.7546       101367.3793
           0.0675       101424.8138       101402.1892       101371.8772       101373.7618
          0.06775       101429.7351       101407.2534       101372.8281       101379.0464
            0.068        101432.857       101411.9616       101374.8215       101382.7074
          0.06825       101433.6195       101415.8796       101377.8267        101384.386
           0.0685       101432.0597       101418.5266       101381.5992       101383.9502
          0.06875       101428.8265        101419.525       101385.6901       101381.5278
            0.069       101424.9314       101418.7449        101389.595       101377.4993
          0.06925       101421.3742       101416.3884       101392.8808       101372.4356
           0.0695       101418.8343       101412.9912       101395.2744       101366.9943
          0.06975       101417.5492       101409.3191       101396.6686       101361.8075
             0.07       101417.3918       101406.1603       101397.0804       101357.3869
          0.07025       101418.0538       101404.0879        101396.615       101354.0589
           0.0705       101419.2153       101403.2988       101395.4575       101351.9448
          0.07075        101420.621       101403.6035       101393.8779       101350.9632
            0.071       101422.0782       101404.5572       101392.2152       101350.9122
          0.07125       101423.4517       101405.6617       101390.8257       101351.5505
           0.0715       101424.7078       101406.5534       101389.9995       101352.6672
          0.07175       101425.9883       101407.1223       101389.8772       101354.0991
            0.072       101427.6547       101407.5457       101390.4041       101355.7327
          0.07225       101430.2381       101408.2438       101391.3512          101357.5
           0.0725       101434.2733       101409.7788       101392.4046       101359.3515
          0.07275       101440.0581       101412.7154       101393.2983        101361.224
            0.073       101447.4861       101417.4632       101393.9407       101363.0242
          0.07325       101455.8028       101424.1247        101394.485       101364.6365
           0.0735       101463.7801       101432.3899       101395.3099       101365.9481
          0.07375       101470.0894       101441.5042        101396.911       101366.8764
            0.074       101473.7922       101450.3917       101399.7353       101367.3882
          0.07425       101474.6966       101457.7557        101404.014       101367.5063
           0.0745       101473.3612        101462.429       101409.6479       101367.3029
          0.07475       101470.6757       101463.7748       101416.1908       101366.8814
            0.075       101467.2213       101461.8715       101422.9211        101366.351
          0.07525        101462.785        101457.408       101428.9558       101365.7977
           0.0755       101456.3842       101451.3664       101433.4328       101365.2829
          0.07575       101446.9623       101444.5974        101435.712       101364.8306
            0.076       101434.3609       101437.4795        101435.516       101364.4369
          0.07625       101420.0207       101429.8628       101432.9705       101364.0946
           0.0765       101406.8743       101421.3583       101428.5438       101363.8231