# Probe 0 (0.4 0.005 1.4)
# Probe 1 (0.9 0.005 1.4)
# Probe 2 (1.4 0.005 1.4)
# Probe 3 (1.9 0.005 1.4)
# Probe 4 (2.4 0.005 1.4)
# Probe 5 (2.9 0.005 1.4)
# Probe 6 (3.4 0.005 1.4)
# Probe 7 (3.9 0.005 1.4)
# Probe 8 (4.4 0.005 1.4)
# Probe 9 (4.9 0.005 1.4)
# Probe 10 (5.4 0.005 1.4)
# Probe 11 (5.9 0.005 1.4)
# Probe 12 (6.4 0.005 1.4)
# Probe 13 (6.9 0.005 1.4)
# Probe 14 (7.4 0.005 1.4)
# Probe 15 (7.9 0.005 1.4)
# Probe 16 (8.4 0.005 1.4)
#           Probe                 0                 1                 2                 3                 4                 5                 6                 7                 8                 9                10                11                12                13                14                15                16
#            Time
    1.1999904e-06            293.15            293.15            293.15            293.15       293.1541597            293.15            293.15            293.15            293.15            293.15            293.15            293.15            293.15            293.15            293.15            293.15            293.15
  2.639965056e-06            293.15            293.15            293.15       293.1500001       293.1591509            293.15            293.15            293.15       293.1499999            293.15            293.15            293.15            293.15            293.15            293.15            293.15            293.15
  4.367944597e-06            293.15            293.15            293.15       293.1500002       293.1651398            293.15            293.15            293.15       293.1499999            293.15            293.15            293.15            293.15            293.15            293.15            293.15            293.15
  6.441505713e-06            293.15            293.15            293.15       293.1500005       293.1723255       293.1500001            293.15            293.15       293.1499998       293.1499999            293.15            293.15            293.15            293.15            293.15            293.15            293.15
   8.92973777e-06            293.15            293.15            293.15        293.150001       293.1809471       293.1500003            293.15            293.15       293.1499998       293.1499999            293.15            293.15            293.15            293.15            293.15            293.15            293.15
  1.191552707e-05            293.15            293.15            293.15       293.1500019       293.1912905       293.1500006            293.15            293.15       293.1499997       293.1499999            293.15            293.15            293.15            293.15            293.15            293.15            293.15
  1.549838863e-05            293.15            293.15            293.15       293.1500036        293.203699       293.1500013            293.15            293.15       293.1499996       293.1499998            293.15            293.15            293.15            293.15            293.15            293.15            293.15
  1.979776087e-05            293.15            293.15            293.15       293.1500068       293.2185819       293.1500026            293.15            293.15       293.1499995       293.1499998            293.15            293.15            293.15            293.15            293.15            293.15            293.15
  2.495674128e-05            293.15            293.15            293.15       293.1500124       293.2364298       293.1500052            293.15            293.15       293.1499994       293.1499997            293.15            293.15            293.15            293.15            293.15            293.15            293.15
  3.114713435e-05            293.15            293.15            293.15       293.1500224       293.2578275       293.1500101            293.15            293.15       293.1499992       293.1499997            293.15            293.15            293.15            293.15            293.15            293.15            293.15
  3.857523794e-05            293.15            293.15            293.15         293.15004       293.2834708       293.1500191            293.15            293.15        293.149999       293.1499996            293.15            293.15            293.15            293.15            293.15            293.15            293.15
  4.748896225e-05            293.15            293.15            293.15       293.1500711       293.3141843       293.1500356            293.15            293.15       293.1499988       293.1499995            293.15            293.15            293.15            293.15            293.15            293.15            293.15
  5.818543142e-05            293.15            293.15            293.15       293.1501257        293.350937       293.1500654            293.15            293.15       293.1499986       293.1499994            293.15            293.15            293.15            293.15            293.15            293.15            293.15
  7.102064463e-05            293.15            293.15            293.15        293.150221       293.3948556       293.1501188            293.15            293.15       293.1499982       293.1499992            293.15            293.15            293.15            293.15            293.15            293.15            293.15
  8.642131685e-05            293.15            293.15       293.1500001        293.150387       293.4472317       293.1502139            293.15            293.15       293.1499979        293.149999            293.15            293.15            293.15            293.15            293.15            293.15            293.15
  0.0001049009832            293.15            293.15       293.1500002       293.1506756       293.5095183        293.150382       293.1500001            293.15       293.1499974       293.1499988            293.15            293.15            293.15            293.15            293.15            293.15            293.15
  0.0001270765827            293.15            293.15       293.1500004        293.151176       293.5832857       293.1506775       293.1500002            293.15       293.1499969       293.1499986            293.15            293.15            293.15            293.15            293.15            293.15            293.15
  0.0001536896689            293.15            293.15       293.1500011       293.1520407       293.6701217       293.1511943       293.1500004            293.15       293.1499962       293.1499983            293.15            293.15            293.15            293.15            293.15            293.15            293.15
  0.0001856219625            293.15            293.15       293.1500029       293.1535287       293.7713967       293.1520928       293.1500011            293.15       293.1499954       293.1499979            293.15            293.15            293.15            293.15            293.15            293.15            293.15
  0.0002239407148            293.15            293.15       293.1500074       293.1560752        293.887932        293.153645       293.1500028            293.15       293.1499945       293.1499974            293.15            293.15            293.15            293.15            293.15            293.15            293.15
  0.0002699019884            293.15            293.15       293.1500187       293.1603971       294.0192396       293.1563043        293.150007            293.15       293.1499934       293.1499969            293.15            293.15            293.15            293.15            293.15            293.15            293.15
  0.0003250351347            293.15       293.1500001       293.1500466       293.1676501       294.1625612        293.160814       293.1500176            293.15        293.149992       293.1499962            293.15            293.15            293.15            293.15            293.15            293.15            293.15
  0.0003911802278            293.15       293.1500002       293.1501152       293.1796237       294.3111436       293.1683562       293.1500439            293.15       293.1499904       293.1499953            293.15            293.15            293.15            293.15            293.15            293.15            293.15
  0.0004705543394            293.15       293.1500007       293.1502816       293.1989181       294.4519077       293.1807284       293.1501086            293.15       293.1499885       293.1499943            293.15            293.15            293.15            293.15            293.15            293.15            293.15
  0.0005658032734            293.15       293.1500023       293.1506773       293.2289003       294.5627296       293.2004618       293.1502653            293.15       293.1499862       293.1499928            293.15            293.15            293.15            293.15            293.15            293.15            293.15
  0.0006799700095            293.15       293.1500081       293.1515936       293.2729562       294.6107771       293.2306321       293.1506378       293.1500004       293.1499835        293.149991       293.1499999            293.15            293.15            293.15            293.15            293.15            293.15
  0.0008169700928            293.15       293.1500274       293.1536428       293.3325472         294.55529       293.2740677       293.1515011       293.1500021       293.1499804       293.1499885       293.1499998            293.15            293.15            293.15            293.15            293.15            293.15
  0.0009814618316       293.1500003       293.1500902       293.1580043       293.4029774       294.3596224       293.3310259       293.1534276       293.1500101       293.1499768       293.1499852       293.1499996            293.15            293.15            293.15            293.15            293.15            293.15
   0.001179117227       293.1500013        293.150285        293.166654       293.4679414        294.019644       293.3951275       293.1574948       293.1500441        293.149973       293.1499808       293.1499991            293.15            293.15            293.15            293.15            293.15            293.15
   0.001416111804       293.1500067       293.1508506        293.182104       293.4976069        293.602998       293.4488238       293.1653768       293.1501747       293.1499703       293.1499749       293.1499981       293.1499999            293.15            293.15            293.15            293.15            293.15
   0.001666544217       293.1500258         293.15211       293.2031294       293.4686852       293.2821112       293.4661264       293.1772057       293.1505396       293.1499738        293.149968       293.1499963       293.1499999            293.15            293.15            293.15            293.15            293.15
   0.001916976631       293.1500776       293.1543628       293.2259325       293.3991653       293.1123478       293.4426737       293.1916236       293.1513251       293.1499932       293.1499606       293.1499935       293.1499996            293.15            293.15            293.15            293.15            293.15
   0.002167409044       293.1501965       293.1578764       293.2462958        293.317978       293.0518883       293.3897801       293.2066586       293.1527679       293.1500477       293.1499533       293.1499896       293.1499992            293.15            293.15            293.15            293.15            293.15
   0.002417841458       293.1504382       293.1627668       293.2601202       293.2474871       293.0517075       293.3253086       293.2198145       293.1551093       293.1501703       293.1499472       293.1499842       293.1499985            293.15            293.15            293.15            293.15            293.15
   0.002668273871       293.1508828        293.168918       293.2647833       293.2007646       293.0834753       293.2660636       293.2287445       293.1585321       293.1504115       293.1499451       293.1499772       293.1499974       293.1499999            293.15            293.15            293.15            293.15
   0.002918706284       293.1516348       293.1759469        293.259912       293.1786175        293.129271       293.2215448       293.2319034       293.1630906       293.1508404       293.1499525       293.1499687       293.1499955       293.1499998            293.15            293.15            293.15            293.15
   0.003169138698       293.1528166       293.1832326       293.2473144       293.1749964        293.177334       293.1938584       293.2289344       293.1686554       293.1515438       293.1499777       293.1499592       293.1499927       293.1499996            293.15            293.15            293.15            293.15
   0.003419571111       293.1545571       293.1899901       293.2301382       293.1840283       293.2170367       293.1824023       293.2206375       293.1748898       293.1526191       293.1500341       293.1499498       293.1499887       293.1499992            293.15            293.15            293.15            293.15
   0.003670003524       293.1569738       293.1953941       293.2119097       293.2005509       293.2373336       293.1842248       293.2086745       293.1812604       293.1541624       293.1501416       293.1499426       293.1499832       293.1499985       293.1499999            293.15            293.15            293.15
   0.003920435938       293.1601505       293.1987336       293.1957998       293.2204138       293.2330223        293.194775       293.1951168       293.1870834       293.1562509       293.1503277       293.1499414       293.1499762       293.1499974       293.1499998            293.15            293.15            293.15
   0.004170868351       293.1641123       293.1995409       293.1838521       293.2395609       293.2078686       293.2090068       293.1818869       293.1916181       293.1589228       293.1506283       293.1499516        293.149968       293.1499957       293.1499997            293.15            293.15            293.15
   0.004421300765       293.1688009       293.1976719       293.1767169       293.2547243        293.171741       293.2224356       293.1704772       293.1941955       293.1621548       293.1510889       293.1499793       293.1499592       293.1499932       293.1499994            293.15            293.15            293.15
   0.004671733178       293.1740541       293.1933359       293.1741693       293.2640586       293.1344134        293.231639       293.1618781       293.1943452       293.1658421       293.1517609       293.1500339       293.1499513       293.1499896       293.1499989       293.1499999            293.15            293.15
   0.004922165591       293.1796008       293.1870885       293.1752754       293.2676581       293.1018339       293.2350094       293.1564435       293.1918986       293.1697838       293.1526983       293.1501276       293.1499465       293.1499849       293.1499982       293.1499999            293.15            293.15
   0.005172598005       293.1850675       293.1797956       293.1785713       293.2670128       293.0761046       293.2326376       293.1538718       293.1870508        293.173681       293.1539512       293.1502765       293.1499484       293.1499791       293.1499971       293.1499998            293.15            293.15
   0.005423030418       293.1900117       293.1724509       293.1825431        293.264829       293.0558679       293.2267401       293.1534096       293.1803532        293.177158       293.1555572       293.1505028       293.1499607       293.1499723       293.1499956       293.1499997            293.15            293.15
   0.005673462831       293.1939815        293.165917       293.1861873       293.2631567       293.0380765       293.2206718       293.1542182       293.1726319       293.1798071       293.1575295       293.1508336       293.1499887       293.1499653       293.1499933       293.1499994            293.15            293.15
   0.005923895245       293.1965918       293.1608282       293.1891963       293.2632682       293.0212517        293.215644       293.1556568       293.1648432       293.1812536       293.1598449       293.1513004       293.1500382       293.1499592       293.1499904        293.149999       293.1499999            293.15
   0.006174327658       293.1975968       293.1575877       293.1918131       293.2654644       293.0034768       293.2129387       293.1574126       293.1578743       293.1812299       293.1624317       293.1519385       293.1501168       293.1499559       293.1499867       293.1499984       293.1499999            293.15
   0.006424760072       293.1969389       293.1563808       293.1945636       293.2692753        292.983839       293.2129528         293.15949       293.1523887       293.1796403       293.1651619       293.1527835       293.1502349       293.1499578       293.1499823       293.1499975       293.1499998            293.15
   0.006675192485       293.1947601        293.157212       293.1979919       293.2738573       292.9635227       293.2143906       293.1621017        293.148785       293.1765989        293.167852       293.1538677       293.1504058        293.149968       293.1499776       293.1499963       293.1499996            293.15
   0.006925624898       293.1913735       293.1599715       293.2024673       293.2784767        292.943851         293.21583       293.1654909       293.1472204       293.1724323       293.1702761       293.1552133       293.1506466       293.1499899        293.149973       293.1499946       293.1499994            293.15
   0.007176057312       293.1872436       293.1644756       293.2080971       293.2827941       292.9251282       293.2169491       293.1698078       293.1476241       293.1676513       293.1721929       293.1568255       293.1509777        293.150027       293.1499696       293.1499924        293.149999       293.1499999
   0.007426489725       293.1828884       293.1704802       293.2147392       293.2867493       292.9068914        293.217626       293.1750353       293.1497766       293.1628791       293.1733844       293.1586847       293.1514224       293.1500845       293.1499687       293.1499897       293.1499985       293.1499999
   0.007676922139       293.1787744       293.1777498       293.2220822       293.2904742         292.88854       293.2180309       293.1809732       293.1534667       293.1587594       293.1736974       293.1607402       293.1520061       293.1501686       293.1499722       293.1499865       293.1499978       293.1499998
   0.007927354552       293.1753284       293.1859837       293.2297522       293.2939883         292.86977       293.2183147       293.1873257       293.1584899       293.1558791       293.1730831       293.1629057        293.152754       293.1502881       293.1499821        293.149983       293.1499968       293.1499997
   0.008177786965        293.172951       293.1948221       293.2373642       293.2972881       292.8509621       293.2184506       293.1937251       293.1645849       293.1546943       293.1716235       293.1650626       293.1536886       293.1504549       293.1500009       293.1499797       293.1499955       293.1499995
   0.008428219379       293.1720466       293.2037327       293.2444863       293.2997671       292.8307913       293.2180125       293.1996867       293.1713934       293.1554665        293.169543       293.1670666       293.1548243       293.1506829       293.1500317       293.1499771       293.1499938       293.1499993
   0.008678651792       293.1729731       293.2120533       293.2506904       293.3011354       292.8092995       293.2166099       293.2046747       293.1785137       293.1582517       293.1671887       293.1687692       293.1561647       293.1509892       293.1500779       293.1499764       293.1499918       293.1499989
   0.008929084205       293.1759524       293.2190955       293.2555693       293.3011299       292.7864361       293.2138583       293.2082075       293.1854813       293.1629094       293.1649982       293.1700405       293.1576974       293.1513933       293.1501446       293.1499787       293.1499894       293.1499983
   0.009179516619       293.1811171        293.224222       293.2587313       293.2996391       292.7622957       293.2095224       293.2098914       293.1917652       293.1691199       293.1634399       293.1707957       293.1593904       293.1519163       293.1502383       293.1499857        293.149987       293.1499976
   0.009429949032       293.1882733       293.2270086       293.2598781        293.296754       292.7372002       293.2035856       293.2095356       293.1968117       293.1764021        293.162937       293.1710199       293.1611911       293.1525797       293.1503676       293.1499993       293.1499848       293.1499966
   0.009680381446       293.1969029       293.2272678       293.2589003       293.2927673       292.7116812       293.1962628       293.2071898       293.2001197       293.1841379        293.163797       293.1707801       293.1630277       293.1534025        293.150543       293.1500214       293.1499832       293.1499954
   0.009930813859       293.2062051       293.2250903       293.2559394       293.2881445       292.6863982       293.1879822       293.2031403       293.2013206       293.1916045       293.1661604       293.1702266       293.1648147       293.1543992       293.1507775       293.1500546       293.1499831       293.1499939
    0.01018124627       293.2151794       293.2209166        293.251401       293.2834714       292.6620333       293.1793501         293.19789       293.2003323         293.19803       293.1699615       293.1695829       293.1664631       293.1555764       293.1510857       293.1501023       293.1499855       293.1499921
    0.01043167869       293.2227402       293.2154639       293.2459212       293.2793946       292.6392313       293.1710986       293.1921175       293.1973325       293.2026781       293.1749011       293.1691155       293.1678923       293.1569296       293.1514838       293.1501695       293.1499914       293.1499902
     0.0106821111       293.2278488       293.2096172       293.2402964       293.2765398       292.6183958       293.1640064       293.1866078        293.192769        293.204951       293.1804547       293.1690865       293.1690439       293.1584406       293.1519889       293.1502626       293.1500023       293.1499884
    0.01093254351       293.2296716       293.2043087       293.2353887       293.2754318       292.5998277       293.1587951       293.1821643       293.1873064       293.2044875       293.1859238       293.1696997       293.1698914       293.1600757       293.1526178       293.1503897       293.1500196       293.1499869
    0.01118297593       293.2277079       293.2003776       293.2320182       293.2764213       292.5837545        293.156017       293.1795091       293.1817358       293.2012399       293.1905225        293.171049       293.1704477       293.1617853       293.1533851       293.1505604       293.1500454       293.1499863
    0.01143340834       293.2219462       293.1984416       293.2308516       293.2796374       292.5703148       293.1559717       293.1791851       293.1768585       293.1955609        293.193485        293.173078        293.170764       293.1635061       293.1543015       293.1507861       293.1500825       293.1499874
    0.01168384075       293.2129784       293.1987987        293.232308       293.2849765       292.5594474       293.1587243       293.1814764       293.1733652       293.1881564         293.19422         293.17557       293.1709209       293.1651649       293.1553716       293.1510796       293.1501349       293.1499909
    0.01193427317       293.2021325       293.2013775       293.2364717       293.2921369        292.550879       293.1639375       293.1863442       293.1717341       293.1799947       293.1924018       293.1781551       293.1710101        293.166686       293.1565915       293.1514552       293.1502077       293.1499982
    0.01218470558        293.190982       293.2058047       293.2430487       293.3005696       292.5438064       293.1710361       293.1934058       293.1721669       293.1721777       293.1880497       293.1803562       293.1711107       293.1679979       293.1579465       293.1519276       293.1503071       293.1500101
    0.01243513799       293.1812012       293.2114778       293.2514337       293.3098463       292.5379455       293.1794063       293.2019924       293.1745635       293.1657836       293.1815643       293.1816671       293.1712656       293.1690418       293.1594099       293.1525115       293.1504406       293.1500281
    0.01268557041        293.174434       293.2176777       293.2607997       293.3194901       292.5327847       293.1883825       293.2112675       293.1785442       293.1617088       293.1737146       293.1816464       293.1714611       293.1697763       293.1609419       293.1532199       293.1506171        293.150054
    0.01293600282       293.1720206       293.2237238       293.2702239        293.329066       292.5277807       293.1973317       293.2203838       293.1836057        293.160543       293.1655766       293.1800102       293.1716162       293.1701797       293.1624896       293.1540624       293.1508468       293.1500908
    0.01318643523       293.1747301       293.2291239       293.2788267       293.3382272       292.5224869       293.2057124       293.2286125       293.1892536       293.1625045       293.1583533       293.1767076       293.1715895       293.1702485       293.1639894       293.1550437       293.1511411       293.1501426
    0.01343686765       293.1826333       293.2336708       293.2858965        293.346739       292.5166201       293.2131112       293.2354451       293.1950926       293.1674356       293.1532203       293.1719704       293.1712053       293.1699938       293.1653698       293.1561612        293.151512       293.1502141
    0.01368730006       293.1950101       293.2374803       293.2910033        293.354467        292.510011       293.2192614       293.2406577       293.2008595       293.1748883       293.1511319       293.1663126       293.1702845       293.1694348        293.166557       293.1574021       293.1519721        293.150311
    0.01393773247       293.2107005       293.2409563       293.2940507       293.3613469       292.5024549       293.2240383        293.244324       293.2064729       293.1842267        293.152646       293.1604911        293.168705       293.1685931       293.1674795       293.1587426       293.1525331       293.1504403
    0.01418816489       293.2280709       293.2446905        293.295291        293.367284       292.4931584       293.2274212       293.2467794       293.2119943       293.1946743       293.1578044       293.1554155       293.1664228       293.1674869       293.1680743       293.1601453        293.153205       293.1506101
     0.0144385973       293.2453132       293.2493095       293.2952683       293.3717536       292.4773426       293.2293495       293.2485426       293.2175906       293.2053692        293.166079       293.1520151       293.1635336       293.1661315       293.1682917       293.1615597       293.1539944       293.1508295
    0.01468902971        293.260816       293.2552829       293.2946877       293.3684824       292.3809231       293.2283596       293.2501949       293.2234565       293.2154628       293.1765034       293.1510652       293.1602788        293.164544       293.1680998       293.1629221       293.1549026        293.151109
    0.01493946213       293.2734439       293.2627765       293.2941618       293.3396295       292.0641268       293.2183801       293.2521996       293.2297147       293.2242171       293.1878197       293.1530676       293.1570474       293.1627549       293.1674881       293.1641592       293.1559241       293.1514597
    0.01518989454       293.2826583       293.2715435       293.2938599       293.2935953       291.8951452       293.1945574       293.2547046       293.2363183       293.2311018       293.1987358       293.1580931       293.1543374       293.1608156       293.1664701       293.1651915       293.1570445       293.1518926
    0.01544032695        293.288482       293.2809623       293.2933652       293.2433434       291.8990696       293.1581768        293.257411       293.2429822       293.2358722       293.2081521       293.1657702       293.1526835       293.1588105       293.1650847       293.1659405       293.1582384       293.1524183
    0.01569075937       293.2913441        293.290127       293.2917516       293.2031226        291.995788        293.117024       293.2595646       293.2491627       293.2386018       293.2153632       293.1752882       293.1525691       293.1568747       293.1633964       293.1663355       293.1594687       293.1530455
    0.01594119178       293.2918909       293.2979572       293.2879701       293.1819674       292.1081736       293.0817491       293.2601264       293.2541776       293.2395872       293.2200226       293.1855818       293.1543472       293.1551851       293.1614956       293.1663213       293.1606861       293.1537797
    0.01619162419       293.2907902        293.303392       293.2814042       293.1816102       292.1939194       293.0607087       293.2581008       293.2572596       293.2392253       293.2221884       293.1954776       293.1581553       293.1539611       293.1594956       293.1658654       293.1618305       293.1546218
    0.01644205661       293.2885999       293.3055777       293.2722773        293.197088       292.2472534       293.0564493       293.2528754       293.2577231       293.2378357       293.2221796       293.2039062       293.1638519       293.1534429       293.1575299       293.1649642       293.1628335       293.1555657