# Probe 0 (3.4 0.005 1.5)
# Probe 1 (4.4 0.005 1.5)
# Probe 2 (5.4 0.005 1.5)
# Probe 3 (5.9 0.005 1.5)
# Probe 4 (6.2 0.005 1.5)
# Probe 5 (6.7 0.005 1.5)
# Probe 6 (8.2 0.005 1.5)
#           Probe                 0                 1                 2                 3                 4                 5                 6
#            Time
    1.1999904e-06     0.09999960001     0.09999960001     0.09999960001     0.09999960001     0.09999960001     0.09999960001     0.09999960001
  2.639965056e-06     0.09999912003     0.09999912003     0.09999912003     0.09999912003     0.09999912003     0.09999912003     0.09999912003
  4.367944597e-06     0.09999854405     0.09999854405     0.09999854405     0.09999854405     0.09999854405     0.09999854405     0.09999854405
  6.441505713e-06      0.0999978529      0.0999978529      0.0999978529      0.0999978529      0.0999978529      0.0999978529      0.0999978529
   8.92973777e-06     0.09999702355     0.09999702355     0.09999702355     0.09999702355     0.09999702355     0.09999702355     0.09999702355
  1.191552707e-05     0.09999602839     0.09999602839     0.09999602839     0.09999602839     0.09999602839     0.09999602839     0.09999602839
  1.549838863e-05     0.09999483426     0.09999483426     0.09999483426     0.09999483426     0.09999483426     0.09999483426     0.09999483426
  1.979776087e-05     0.09999340138     0.09999340138     0.09999340138     0.09999340138     0.09999340138     0.09999340138     0.09999340138
  2.495674128e-05     0.09999168209     0.09999168209     0.09999168209     0.09999168209     0.09999168209     0.09999168209     0.09999168209
  3.114713435e-05     0.09998961917     0.09998961917     0.09998961917     0.09998961917     0.09998961917     0.09998961917     0.09998961917
  3.857523794e-05     0.09998714396     0.09998714396     0.09998714396     0.09998714396     0.09998714396     0.09998714396     0.09998714396
  4.748896225e-05     0.09998417393     0.09998417393     0.09998417393     0.09998417393     0.09998417393     0.09998417393     0.09998417393
  5.818543142e-05     0.09998061023     0.09998061023     0.09998061023     0.09998061023     0.09998061023     0.09998061023     0.09998061023
  7.102064463e-05     0.09997633445     0.09997633445     0.09997633445     0.09997633445     0.09997633445     0.09997633445     0.09997633445
  8.642131685e-05     0.09997120472     0.09997120472     0.09997120472     0.09997120472     0.09997120472     0.09997120472     0.09997120472
  0.0001049009832     0.09996505043     0.09996505041     0.09996505041     0.09996505041     0.09996505041     0.09996505041     0.09996505041
  0.0001270765827      0.0999576667     0.09995766666     0.09995766666     0.09995766666     0.09995766666     0.09995766666     0.09995766666
  0.0001536896689     0.09994880752     0.09994880742     0.09994880742     0.09994880742     0.09994880742     0.09994880742     0.09994880742
  0.0001856219625     0.09993818066     0.09993818041     0.09993818041     0.09993818041     0.09993818041     0.09993818041     0.09993818041
  0.0002239407148     0.09992543287     0.09992543223     0.09992543223     0.09992543223     0.09992543223     0.09992543223     0.09992543223
  0.0002699019884     0.09991014919     0.09991014756     0.09991014757     0.09991014757     0.09991014757     0.09991014757     0.09991014757
  0.0003250351347     0.09989182559      0.0998918215      0.0998918215      0.0998918215      0.0998918215      0.0998918215      0.0998918215
  0.0003911802278     0.09986985791     0.09986984769      0.0998698477      0.0998698477      0.0998698477      0.0998698477      0.0998698477
  0.0004705543394     0.09984352258     0.09984349723     0.09984349724     0.09984349724     0.09984349724     0.09984349724     0.09984349724
  0.0005658032734     0.09981196499     0.09981190272     0.09981190273     0.09981190274     0.09981190274     0.09981190274     0.09981190274
  0.0006799700095     0.09977422114     0.09977407047     0.09977407047     0.09977407049     0.09977407049     0.09977407049     0.09977407049
  0.0008169700928     0.09972908296     0.09972872548     0.09972872544     0.09972872549     0.09972872549     0.09972872549     0.09972872549
  0.0009814618316     0.09967518199     0.09967435841     0.09967435827     0.09967435838     0.09967435838     0.09967435838     0.09967435838
   0.001179117227     0.09961095773     0.09960914153     0.09960914106     0.09960914131     0.09960914132     0.09960914132     0.09960914132
   0.001416111804      0.0995348542     0.09953110454     0.09953110306      0.0995311036     0.09953110362     0.09953110362     0.09953110362
   0.001666544217     0.09945544495     0.09944883298     0.09944882868     0.09944882974     0.09944882978     0.09944882978     0.09944882978
   0.001916976631     0.09937683514     0.09936675756     0.09936674637     0.09936674821     0.09936674829      0.0993667483      0.0993667483
   0.002167409044     0.09929859541     0.09928488254      0.0992848558     0.09928485873      0.0992848589     0.09928485892     0.09928485892
   0.002417841458     0.09922015351     0.09920321515     0.09920315619     0.09920316054     0.09920316087     0.09920316091     0.09920316092
   0.002668273871     0.09914095125     0.09912176709     0.09912164676     0.09912165285     0.09912165344     0.09912165354     0.09912165354
   0.002918706284     0.09906058963     0.09904055509      0.0990403268     0.09904033488     0.09904033587     0.09904033607     0.09904033607
   0.003169138698     0.09897891987     0.09895960163     0.09895919638     0.09895920655     0.09895920812     0.09895920847     0.09895920849
   0.003419571111     0.09889606127     0.09887893116     0.09887825365     0.09887826561     0.09887826799     0.09887826861     0.09887826865
   0.003670003524      0.0988123872     0.09879857161     0.09879749914     0.09879751199     0.09879751541     0.09879751647     0.09879751655
   0.003920435938     0.09872838083     0.09871854732     0.09871693313     0.09871694494     0.09871694962     0.09871695131     0.09871695146
   0.004170868351     0.09864450682     0.09863887457     0.09863655645     0.09863656378     0.09863656982      0.0986365724     0.09863657267
   0.004421300765     0.09856113568     0.09855955556     0.09855637026     0.09855636798     0.09855637525     0.09855637902     0.09855637947
   0.004671733178     0.09847855338     0.09848057338     0.09847637715     0.09847635838     0.09847636633     0.09847637158     0.09847637234
   0.004922165591      0.0983969539     0.09840188149     0.09839657729     0.09839653258     0.09839654008     0.09839654701     0.09839654822
   0.005172598005       0.098316379     0.09832340662     0.09831697518     0.09831689199     0.09831689713     0.09831690575     0.09831690759
   0.005423030418     0.09823669111     0.09824504562     0.09823757571     0.09823743713     0.09823743713     0.09823744704     0.09823744976
   0.005673462831     0.09815765856     0.09816667631     0.09815838576     0.09815816867     0.09815815993     0.09815817019     0.09815817404
   0.005923895245     0.09807907559     0.09808817495      0.0980794133     0.09807908756     0.09807906566     0.09807907451     0.09807907973
   0.006174327658     0.09800082157     0.09800944019     0.09800066744     0.09800019481     0.09800015471      0.0980001594     0.09800016616
   0.006424760072     0.09792286643     0.09793041767     0.09792215776     0.09792149224     0.09792142755     0.09792142434     0.09792143264
   0.006675192485     0.09784524176     0.09785111799     0.09784389326     0.09784298274     0.09784288447     0.09784286892     0.09784287849
   0.006925624898      0.0977679893     0.09777162267      0.0977658809     0.09776467013     0.09776452619     0.09776449291     0.09776450305
   0.007176057312     0.09769112275     0.09769207763     0.09768812352     0.09768655939     0.09768635385     0.09768629625     0.09768630564
   0.007426489725     0.09761461903     0.09761267657     0.09761061962     0.09760865823     0.09760837126     0.09760828087     0.09760828749
   0.007676922139     0.09753841492     0.09753362208     0.09753335366     0.09753096932     0.09753057759     0.09753044309     0.09753044413
   0.007927354552     0.09746243839     0.09745510706     0.09745630573     0.09745350119     0.09745297857     0.09745278501      0.0974527768
   0.008177786965     0.09738662156     0.09737727767     0.09737943953     0.09737625624     0.09737557515     0.09737530326     0.09737528113
   0.008428219379     0.09731088766     0.09730022868     0.09730272448     0.09729924993     0.09729838373     0.09729800959     0.09729796754
   0.008678651792     0.09723509248      0.0972239593     0.09722610317     0.09722247282     0.09722139914      0.0972208942      0.0972208243
   0.008929084205     0.09715908671     0.09714841934     0.09714953529     0.09714592594     0.09714463092     0.09714396272     0.09714385445
   0.009179516619      0.0970827467     0.09707350181     0.09707298781     0.09706960132     0.09706808419     0.09706721772     0.09706705732
   0.009429949032     0.09700599095     0.09699905658     0.09699644712     0.09699348485     0.09699176241     0.09699066243     0.09699043229
   0.009680381446     0.09692881603     0.09692489958     0.09691992436     0.09691755632     0.09691566626     0.09691430069     0.09691397873
   0.009930813859     0.09685130395     0.09685082283     0.09684345653     0.09684179049     0.09683979273     0.09683813678     0.09683769604
    0.01018124627     0.09677360551     0.09677660887      0.0967671048     0.09676615938     0.09676413414     0.09676217521     0.09676158366
    0.01043167869     0.09669592789     0.09670205357     0.09669094774     0.09669063603     0.09668867766     0.09668642032     0.09668564106
     0.0106821111     0.09661850969     0.09662699317       0.096615069     0.09661519858     0.09661340517     0.09661087575      0.0966098678
    0.01093254351     0.09654159081     0.09655133107     0.09653954088     0.09653983384     0.09653829416     0.09653554374      0.0965342635
    0.01118297593     0.09646538167     0.09647505686     0.09646440475     0.09646454037     0.09646331955     0.09646042453     0.09645882782
    0.01143340834     0.09639003538     0.09639826696      0.0963896581      0.0963893296     0.09638845665     0.09638551558      0.0963835605
    0.01168384075     0.09631562525     0.09632116106     0.09631524787     0.09631422416     0.09631368436     0.09631081102     0.09630846128
    0.01193427317     0.09624213019     0.09624400709     0.09624107156      0.0962392533     0.09623898828     0.09623630108     0.09623352994
    0.01218470558     0.09616943313     0.09616712105     0.09616699256     0.09616444895     0.09616436565     0.09616197484     0.09615876948
    0.01243513799     0.09609732371     0.09609080838     0.09609285197      0.0960898262     0.09608981335     0.09608780866     0.09608417405
    0.01268557041     0.09602554887     0.09601533172     0.09601851103     0.09601539416     0.09601534449     0.09601378518     0.09600974727
    0.01293600282     0.09595385411     0.09594085801     0.09594387012     0.09594113849     0.09594097339     0.09593988271     0.09593548999
    0.01318643523     0.09588203165     0.09586744096      0.0958688985     0.09586702391     0.09586671478     0.09586607993     0.09586140336
    0.01343686765     0.09580994321     0.09579502066     0.09579365184     0.09579300043     0.09579257917     0.09579235776     0.09578748884
    0.01368730006     0.09573753278     0.09572344967     0.09571827493     0.09571901322      0.0957185691     0.09571870096     0.09571374822
    0.01393773247     0.09566482729     0.09565252966     0.09564298791     0.09564501594      0.0956446781     0.09564509934     0.09564018358
    0.01418816489      0.0955919271     0.09558203931     0.09556805883     0.09557098781      0.0955708932     0.09557154838     0.09556679723
     0.0144385973      0.0955189844     0.09551175799     0.09549376143     0.09549694263     0.09549720095     0.09549804942     0.09549359157
    0.01468902971     0.09544617153     0.09544146749     0.09542032651     0.09542294087     0.09542359335     0.09542460938       0.095420569
    0.01493946213     0.09537363277     0.09537097723     0.09534789374     0.09534908641     0.09535007292     0.09535124014     0.09534773159
    0.01518989454     0.09530143834     0.09530014519     0.09527648091     0.09527551706     0.09527666433     0.09527795829     0.09527508086
    0.01544032695      0.0952295508     0.09522889691     0.09520596603      0.0952023839     0.09520341704     0.09520478493     0.09520261731
    0.01569075937      0.0951578072     0.09515724103     0.09513610879     0.09512982521     0.09513040343     0.09513174573     0.09513034001
    0.01594119178     0.09508594651      0.0950852568     0.09506659654     0.09505794112     0.09505771255     0.09505886991     0.09505824608
    0.01619162419     0.09501368154     0.09501303836     0.09499709213     0.09498676791     0.09498543663     0.09498618875     0.09498633023
    0.01644205661     0.09494078848     0.09494068548     0.09492728913     0.09491626274     0.09491365441     0.09491373806     0.09491458433
    0.01669248902      0.0948671766     0.09486867239     0.09485707008     0.09484630424     0.09484241513     0.09484155617     0.09484299725
    0.01694292143     0.09479291726     0.09479750553     0.09478642177     0.09477671224     0.09477172434     0.09476968058     0.09477155488
    0.01719335385     0.09471823621     0.09472660555     0.09471543189     0.09470726386     0.09470153499     0.09469814547     0.09470024048
    0.01744378626     0.09464347944      0.0946555678     0.09464437127     0.09463773029     0.09463175047     0.09462697702     0.09462903564
    0.01769421867     0.09456905621     0.09458428291     0.09457345186     0.09456791495     0.09456222607     0.09455618842     0.09455792156
    0.01794465109     0.09449536903     0.09451245453     0.09450272136     0.09449769568     0.09449279207     0.09448577509     0.09448688087
     0.0181950835     0.09442274581     0.09443983951     0.09443204182       0.094427046     0.09442326931     0.09441571125     0.09441589965
    0.01844551591     0.09435139261     0.09436642381     0.09436112038     0.09435604327      0.0943534996     0.09434594886     0.09434496937
    0.01869594833     0.09428137044     0.09429245249     0.09428960496     0.09428484572      0.0942833805     0.09427641933     0.09427408863
    0.01894638074      0.0942125921     0.09421836695     0.09421722471     0.09421364218     0.09421288743      0.0942070379     0.09420326434
    0.01919681315     0.09414483895     0.09414470923     0.09414392899     0.09414259755     0.09414208621     0.09413771534     0.09413251711
    0.01944724557     0.09407777725      0.0940719867     0.09406994225     0.09407177848     0.09407110272     0.09406834894     0.09406186184
    0.01969767798     0.09401104272     0.09400059277     0.09399574845     0.09400115838     0.09400011921     0.09399886376     0.09399133535
    0.01994811039     0.09394430123      0.0939307355     0.09392194228     0.09393060974     0.09392930949     0.09392920714     0.09392097515
    0.02019854281     0.09387730784      0.0938624327     0.09384912699     0.09385995851     0.09385879923     0.09385936513     0.09385082124
    0.02044897522     0.09380992792     0.09379551486     0.09377782946     0.09378906003     0.09378863226     0.09378936834     0.09378091185
    0.02069940763     0.09374212764     0.09372967415     0.09370838959     0.09371788046     0.09371875965      0.0937192901     0.09371127875
    0.02094984005      0.0936739404     0.09366453234     0.09364085202     0.09364655437     0.09364906152      0.0936492347     0.09364194298
    0.02120027246     0.09360541979     0.09359967066     0.09357493069     0.09357538338     0.09357939838     0.09357931798      0.0935729124
    0.02145070487     0.09353660543     0.09353468853     0.09351008804     0.09350477171     0.09350967382     0.09350964486     0.09350418119
    0.02170113729     0.09346751102     0.09346925138     0.09344565421     0.09343512888     0.09343988553     0.09344028763     0.09343573058
     0.0219515697     0.09339812945     0.09340313117     0.09338093726     0.09336675074     0.09337014796     0.09337127145     0.09336753046
    0.02220200211     0.09332845585     0.09333622924     0.09331536928     0.09329971428     0.09330068154     0.09330257099     0.09329954133
    0.02245243453     0.09325851096     0.09326857413     0.09324861279     0.09323383421     0.09323175619     0.09323412266      0.0932317167
    0.02270286694     0.09318836013     0.09320026711     0.09318060967     0.09316870951     0.09316359869     0.09316584723     0.09316400629
    0.02295329935     0.09311812343     0.09313140226      0.0931115593      0.0931037964     0.09309631193     0.09309767767     0.09309636041
    0.02320373177     0.09304797702     0.09306212295     0.09304184678     0.09303852099      0.0930298368     0.09302958165     0.09302873513
    0.02345416418     0.09297814373     0.09299259397     0.09297194022     0.09297241257     0.09296395037     0.09296157338     0.09296109757
    0.02370459659     0.09290887263     0.09292298132      0.0929022762     0.09290521142     0.09289829963     0.09289370883     0.09289343044
    0.02395502901     0.09284040931     0.09285344826     0.09283316409     0.09283692277      0.0928324821     0.09282606297     0.09282573481
    0.02420546142     0.09277296263     0.09278416455     0.09276474528     0.09276779795     0.09276615009      0.0927587005     0.09275803079
    0.02445589384     0.09270666986     0.09271533769     0.09269700805     0.09269825542     0.09269909875     0.09269165019     0.09269035575
    0.02470632625     0.09264156757     0.09264719859     0.09262982871     0.09262877589       0.092631315     0.09262488973     0.09262276034
    0.02495675866     0.09257756699     0.09257992222     0.09256303378     0.09255979109     0.09256297115     0.09255834655     0.09255530288
    0.02520719108     0.09251444182     0.09251360888     0.09249646478     0.09249159756     0.09249437322     0.09249191675     0.09248804254
    0.02545762349     0.09245185001     0.09244827239     0.09243002163     0.09242431054     0.09242588768     0.09242549614     0.09242103176
     0.0257080559     0.09238938533     0.09238382858     0.09236367618     0.09235786754     0.09235784796     0.09235900934     0.09235430864
    0.02595848832     0.09232664151     0.09232010534     0.09229745935     0.09229207689     0.09229048469     0.09229242634     0.09228789047
    0.02620892073     0.09226326179     0.09225687449      0.0922314314     0.09222668865     0.09222388239     0.09222576748     0.09222176957
    0.02645935314      0.0921989682     0.09219388517     0.09216564647      0.0921614689     0.09215797932     0.09215909878     0.09215591235
    0.02670978556     0.09213361683     0.09213088347     0.09210012553     0.09209625667     0.09209260607     0.09209250951      0.0920902621
    0.02696021797     0.09206721626     0.09206764089     0.09203484636     0.09203098727     0.09202754643     0.09202609323     0.09202474573
    0.02721065038     0.09199992478     0.09200396066     0.09196975138     0.09196568041     0.09196260077     0.09195992391     0.09195928352
     0.0274610828     0.09193201591     0.09193969728     0.09190477105     0.09190040529     0.09189763405     0.09189404373     0.09189380136
    0.02771151521      0.0918638239     0.09187477201     0.09183984908     0.09183523898     0.09183259806     0.09182846234     0.09182824341
    0.02796194762     0.09179568365     0.09180917115     0.09177495455     0.09177023147      0.0917675265     0.09176316416     0.09176258315
    0.02821238004      0.0917278785      0.0917429352      0.0917100794     0.09170538695     0.09170250656     0.09169812078     0.09169683026
    0.02846281245     0.09166060554     0.09167616523     0.09164522622     0.09164066621     0.09163763741     0.09163330418     0.09163103152
    0.02871324486      0.0915939624     0.09160901686      0.0915803908     0.09157600606     0.09157299024     0.09156869557     0.09156526499
    0.02896367728     0.09152795318       0.091541691     0.09151554639     0.09151134574     0.09150858183     0.09150428662     0.09149962867
    0.02921410969     0.09146250771     0.09147441812     0.09145063962     0.09144664845     0.09144436883     0.09144007369     0.09143422554
     0.0294645421      0.0913975075     0.09140743821     0.09138560215      0.0913819101     0.09138026224     0.09137604856     0.09136914659
    0.02971497452      0.0913328123     0.09134097723     0.09132037374     0.09131715406     0.09131615556     0.09131218982     0.09130445523
    0.02996540693     0.09126828394     0.09127522539     0.09125492802     0.09125241611     0.09125195632     0.09124845789     0.09124017643
    0.03021583934     0.09120380317     0.09121032034     0.09118929184     0.09118772618      0.0911876109     0.09118479587     0.09117629289
    0.03046627176      0.0911392929     0.09114633332     0.09112355885     0.09112310253     0.09112312345     0.09112114386      0.0911127564
    0.03071670417     0.09107470401     0.09108324502     0.09105785033     0.09105852023      0.0910585218     0.09105742184     0.09104946928
    0.03096713658     0.09101005596     0.09102102428     0.09099233753     0.09099396478     0.09099388394     0.09099358643     0.09098634066
      0.031217569     0.09094541088      0.0909595769     0.09092718429     0.09092942042     0.09092928639     0.09092961259     0.09092327308
    0.03146800141      0.0908808705     0.09089875128      0.0908625296     0.09086489469     0.09086479309       0.090865507     0.09086018446
    0.03171843382     0.09081655618     0.09083835889     0.09079847173     0.09080042878     0.09080044596     0.09080130829     0.09079702007
    0.03196886624     0.09075258371     0.09077819759     0.09073506345     0.09073609637     0.09073626594     0.09073708121     0.09073375989
    0.03221929865     0.09068903812     0.09071807374     0.09067231685     0.09067199224     0.09067226227     0.09067290604     0.09067042025
    0.03246973106     0.09062595482       0.090657821     0.09061021415      0.0906082152     0.09060844572     0.09060886589     0.09060704947
    0.03272016348     0.09056331484     0.09059731507      0.0905487173     0.09054485161     0.09054483969     0.09054503454     0.09054371852
    0.03297059589     0.09050105429     0.09053648331     0.09048776978     0.09048196314     0.09048148456     0.09048146713     0.09048050841
     0.0332210283     0.09043908524     0.09047530646     0.09042729042     0.09041958143       0.090418434     0.09041819514      0.0904174954
    0.03347146072     0.09037731866     0.09041380857     0.09036716472     0.09035770861     0.09035574476     0.09035522605     0.09035473698
    0.03372189313     0.09031568475     0.09035203587     0.09030723917     0.09029632085     0.09029346393     0.09029254763     0.09029226127
    0.03397232554     0.09025414159     0.09029003902      0.0902473236      0.0902353712     0.09023161748     0.09023013568     0.09023006229
    0.03422275796     0.09019267469     0.09022785914     0.09018720368     0.09017478987     0.09017020307     0.09016796341     0.09016810201
    0.03447319037     0.09013128443     0.09016552309     0.09012666412     0.09011448266     0.09010918779     0.09010600992     0.09010631826
    0.03472362278      0.0900699679     0.09010306001     0.09006552022     0.09005432992     0.09004851027     0.09004426596     0.09004463671
     0.0349740552     0.09000870506     0.09004051293     0.09000365286     0.08999418925     0.08998808609     0.08998273523     0.08998298526
    0.03522448761      0.0899474528     0.08997794474      0.0899410398     0.08993390481     0.08992781459     0.08992143099     0.08992130775
    0.03547492002     0.08988614951     0.08991543769     0.08987777426     0.08987332415     0.08986758578     0.08986036882     0.08985957398
    0.03572535244     0.08982473017     0.08985308511     0.08981406276      0.0898123211     0.08980728781     0.08979955676      0.0897977839
    0.03597578485     0.08976314768     0.08979097697     0.08975019754      0.0897508205     0.08974681577      0.0897389855     0.08973596566
    0.03622621726     0.08970139171     0.08972918318     0.08968650558     0.08968881875     0.08968608284     0.08967862152     0.08967416852
    0.03647664968      0.0896395014     0.08966773991     0.08962328483      0.0896263944     0.08962503286     0.08961840523     0.08961245299
    0.03672708209     0.08957756691     0.08960664683     0.08956074459     0.08956370375     0.08956365164     0.08955825559     0.08955087989
     0.0369775145     0.08951571956     0.08954588196     0.08949896656     0.08950096104     0.08950197487     0.08949808088     0.08948950079
    0.03722794692     0.08945410935     0.08948542651      0.0894378985     0.08943840465     0.08944008951     0.08943779373     0.08942835168
    0.03747837933     0.08939287423     0.08942528591     0.08937738503     0.08937625583     0.08937812613     0.08937732767     0.08936745062
    0.03772881174     0.08933210942     0.08936549942     0.08931722595     0.08931467873      0.0893162424     0.08931665164     0.08930679897
    0.03797924416     0.08927184367     0.08930613271     0.08925723859     0.08925375085     0.08925459954     0.08925577913     0.08924638488
    0.03822967657     0.08921202836     0.08924725356     0.08919730231     0.08919345183      0.0891933357     0.08919476875     0.08918618778
    0.03848010898     0.08915255461     0.08918889698     0.08913737424      0.0891336746     0.08913254202     0.08913371617      0.0891261828
     0.0387305414     0.08909330122      0.0891310398     0.08907747644     0.08907425458     0.08907224665     0.08907273868     0.08906634463
    0.03898097381     0.08903409068     0.08907359525     0.08901766354     0.08901500913     0.08901241143     0.08901195515     0.08900664999
    0.03923140622      0.0889747606     0.08901642474     0.08895798719     0.08895577619     0.08895294199     0.08895146588     0.08894707867
    0.03948183864     0.08891516292     0.08895936147     0.08889847294     0.08889644274     0.08889370925     0.08889133599     0.08888761373
    0.03973227105     0.08885519484      0.0889022372     0.08883911605     0.08883695789      0.0888345768     0.08883158579     0.08882824162
    0.03998270346     0.08879482546     0.08884490204     0.08877989249     0.08877732975     0.08877542783     0.08877218958     0.08876895235
    0.04023313588     0.08873411335     0.08878723385      0.0887207754     0.08871761091     0.08871618575     0.08871308286     0.08870973957
    0.04048356829       0.088673197      0.0887291434     0.08866174778     0.08865787923     0.08865682473     0.08865417592     0.08865060041
     0.0407340007     0.08861227027     0.08867058447     0.08860280642     0.08859821946     0.08859736857      0.0885953707     0.08859153537
    0.04098443312     0.08855154232     0.08861155763     0.08854395787     0.08853870969     0.08853787934     0.08853657764     0.08853254792
    0.04123486553     0.08849119212     0.08855211311     0.08848521093     0.08847941302     0.08847843953     0.08847772986     0.08847364381
    0.04148529795     0.08843133047     0.08849237403     0.08842657077     0.08842037339     0.08841913273     0.08841879192     0.08841482991
    0.04173573036      0.0883719775     0.08843251657     0.08836803667      0.0883616137     0.08836002736     0.08835976315     0.08835611294
    0.04198616277     0.08831306146     0.08837274588      0.0883096026     0.08830313548     0.08830116592     0.08830067519     0.08829749832
    0.04223659519     0.08825443655     0.08831326183     0.08825125789     0.08824492003     0.08824256162     0.08824158497     0.08823898947
     0.0424870276     0.08819591419     0.08825422349     0.08819298639     0.08818693205     0.08818420136     0.08818256427     0.08818058788
    0.04273746001     0.08813730072     0.08819573928     0.08813476567     0.08812912556     0.08812605402     0.08812368758     0.08812229351
    0.04298789243     0.08807843232     0.08813789649     0.08807656887      0.0880714508     0.08806808131     0.08806502011     0.08806410554
    0.04323832484     0.08801920156     0.08808075344     0.08801837167     0.08801386049     0.08801024841     0.08800660798     0.08800602264
    0.04348875725     0.08795957174     0.08802430492     0.08796016342     0.08795631405     0.08795253176     0.08794847221      0.0879480429
    0.04373918967     0.08789957799     0.08796848448     0.08790195924     0.08789877964      0.0878949224     0.08789060796     0.08789016308
    0.04398962208     0.08783931807      0.0879131656     0.08784380809     0.08784123485     0.08783742412     0.08783298911     0.08783237767
    0.04424005449     0.08777893462     0.08785817325     0.08778579205     0.08778366763     0.08778004685     0.08777557721     0.08777467811
    0.04449048691     0.08771859375     0.08780330153     0.08772801525     0.08772607889     0.08772279777     0.08771833242     0.08771705276
    0.04474091932     0.08765846291     0.08774834027     0.08767058825     0.08766848696     0.08766567348     0.08766122348     0.08765948808
    0.04499135173     0.08759869386     0.08769310729     0.08761361542     0.08761093184     0.08760865682     0.08760423378     0.08760197094
    0.04524178415     0.08753940309     0.08763748002     0.08755717562     0.08755347662     0.08755172047     0.08754736182     0.08754449169