# Probe 0 (3.4 0.005 1.5)
# Probe 1 (4.4 0.005 1.5)
# Probe 2 (5.4 0.005 1.5)
# Probe 3 (5.9 0.005 1.5)
# Probe 4 (6.2 0.005 1.5)
# Probe 5 (6.7 0.005 1.5)
# Probe 6 (8.2 0.005 1.5)
#           Probe                 0                 1                 2                 3                 4                 5                 6
#            Time
    1.1999904e-06     0.09999960001     0.09999960001     0.09999960001     0.09999960001     0.09999960001     0.09999960001     0.09999960001
  2.639965056e-06     0.09999912003     0.09999912003     0.09999912003     0.09999912003     0.09999912003     0.09999912003     0.09999912003
  4.367944597e-06     0.09999854405     0.09999854405     0.09999854405     0.09999854405     0.09999854405     0.09999854405     0.09999854405
  6.441505713e-06      0.0999978529      0.0999978529      0.0999978529      0.0999978529      0.0999978529      0.0999978529      0.0999978529
   8.92973777e-06     0.09999702355     0.09999702355     0.09999702355     0.09999702355     0.09999702355     0.09999702355     0.09999702355
  1.191552707e-05     0.09999602839     0.09999602839     0.09999602839     0.09999602839     0.09999602839     0.09999602839     0.09999602839
  1.549838863e-05     0.09999483426     0.09999483426     0.09999483426     0.09999483426     0.09999483426     0.09999483426     0.09999483426
  1.979776087e-05     0.09999340138     0.09999340138     0.09999340138     0.09999340138     0.09999340138     0.09999340138     0.09999340138
  2.495674128e-05     0.09999168209     0.09999168209     0.09999168209     0.09999168209     0.09999168209     0.09999168209     0.09999168209
  3.114713435e-05     0.09998961917     0.09998961917     0.09998961917     0.09998961917     0.09998961917     0.09998961917     0.09998961917
  3.857523794e-05     0.09998714396     0.09998714396     0.09998714396     0.09998714396     0.09998714396     0.09998714396     0.09998714396
  4.748896225e-05     0.09998417393     0.09998417393     0.09998417393     0.09998417393     0.09998417393     0.09998417393     0.09998417393
  5.818543142e-05     0.09998061023     0.09998061023     0.09998061023     0.09998061023     0.09998061023     0.09998061023     0.09998061023
  7.102064463e-05     0.09997633445     0.09997633445     0.09997633445     0.09997633445     0.09997633445     0.09997633445     0.09997633445
  8.642131685e-05     0.09997120472     0.09997120472     0.09997120472     0.09997120472     0.09997120472     0.09997120472     0.09997120472
  0.0001049009832     0.09996505043     0.09996505041     0.09996505041     0.09996505041     0.09996505041     0.09996505041     0.09996505041
  0.0001270765827      0.0999576667     0.09995766666     0.09995766666     0.09995766666     0.09995766666     0.09995766666     0.09995766666
  0.0001536896689     0.09994880752     0.09994880742     0.09994880742     0.09994880742     0.09994880742     0.09994880742     0.09994880742
  0.0001856219625     0.09993818066     0.09993818041     0.09993818041     0.09993818041     0.09993818041     0.09993818041     0.09993818041
  0.0002239407148     0.09992543287     0.09992543223     0.09992543223     0.09992543223     0.09992543223     0.09992543223     0.09992543223
  0.0002699019884     0.09991014919     0.09991014756     0.09991014757     0.09991014757     0.09991014757     0.09991014757     0.09991014757
  0.0003250351347     0.09989182559      0.0998918215      0.0998918215      0.0998918215      0.0998918215      0.0998918215      0.0998918215
  0.0003911802278     0.09986985791     0.09986984769      0.0998698477      0.0998698477      0.0998698477      0.0998698477      0.0998698477
  0.0004705543394     0.09984352258     0.09984349723     0.09984349724     0.09984349724     0.09984349724     0.09984349724     0.09984349724
  0.0005658032734     0.09981196498     0.09981190272     0.09981190273     0.09981190274     0.09981190274     0.09981190274     0.09981190274
  0.0006799700095     0.09977422112     0.09977407047     0.09977407047     0.09977407049     0.09977407049     0.09977407049     0.09977407049
  0.0008169700928     0.09972908289     0.09972872548     0.09972872544     0.09972872549     0.09972872549     0.09972872549     0.09972872549
  0.0009814618316     0.09967518177     0.09967435841     0.09967435827     0.09967435838     0.09967435838     0.09967435838     0.09967435838
   0.001179117227     0.09961095713     0.09960914153     0.09960914106     0.09960914131     0.09960914132     0.09960914132     0.09960914132
   0.001416111804     0.09953485264     0.09953110454     0.09953110306      0.0995311036     0.09953110362     0.09953110362     0.09953110362
   0.001666544217     0.09945544145     0.09944883298     0.09944882868     0.09944882974     0.09944882978     0.09944882978     0.09944882978
   0.001916976631     0.09937682854     0.09936675755     0.09936674637     0.09936674821     0.09936674829      0.0993667483      0.0993667483
   0.002167409044     0.09929858443     0.09928488253      0.0992848558     0.09928485873      0.0992848589     0.09928485892     0.09928485892
   0.002417841458     0.09922013696     0.09920321513     0.09920315619     0.09920316054     0.09920316087     0.09920316091     0.09920316092
   0.002668273871     0.09914092813     0.09912176704     0.09912164676     0.09912165285     0.09912165344     0.09912165354     0.09912165354
   0.002918706284     0.09906055934     0.09904055498      0.0990403268     0.09904033488     0.09904033587     0.09904033607     0.09904033607
   0.003169138698     0.09897888221      0.0989596014     0.09895919638     0.09895920655     0.09895920812     0.09895920847     0.09895920849
   0.003419571111      0.0988960165     0.09887893074     0.09887825365     0.09887826561     0.09887826799     0.09887826861     0.09887826865
   0.003670003524     0.09881233617     0.09879857087     0.09879749914     0.09879751199     0.09879751541     0.09879751647     0.09879751655
   0.003920435938     0.09872832483     0.09871854609     0.09871693313     0.09871694494     0.09871694962     0.09871695131     0.09871695146
   0.004170868351     0.09864444707     0.09863887261     0.09863655645     0.09863656378     0.09863656982      0.0986365724     0.09863657267
   0.004421300765     0.09856107295     0.09855955258     0.09855637025     0.09855636798     0.09855637525     0.09855637902     0.09855637947
   0.004671733178     0.09847848846     0.09848056903     0.09847637713     0.09847635838     0.09847636633     0.09847637158     0.09847637234
   0.004922165591     0.09839688741     0.09840187539     0.09839657725     0.09839653257     0.09839654008     0.09839654701     0.09839654822
   0.005172598005     0.09831631063     0.09832339832     0.09831697512     0.09831689199     0.09831689713     0.09831690575     0.09831690759
   0.005423030418     0.09823661969      0.0982450347     0.09823757561     0.09823743713     0.09823743713     0.09823744704     0.09823744976
   0.005673462831     0.09815758245     0.09816666237     0.09815838559     0.09815816866     0.09815815993     0.09815817019     0.09815817404
   0.005923895245      0.0980789939     0.09808815771     0.09807941302     0.09807908754     0.09807906566     0.09807907451     0.09807907973
   0.006174327658     0.09800073476     0.09800941951     0.09800066701     0.09800019477     0.09800015471      0.0980001594     0.09800016616
   0.006424760072     0.09792277595      0.0979303936     0.09792215709     0.09792149218     0.09792142754     0.09792142434     0.09792143264
   0.006675192485     0.09784514922     0.09785109075     0.09784389228     0.09784298265     0.09784288446     0.09784286892     0.09784287849
   0.006925624898     0.09776789578     0.09777159262     0.09776587948     0.09776466999     0.09776452616     0.09776449291     0.09776450305
   0.007176057312     0.09769102827     0.09769204519     0.09768812151     0.09768655917      0.0976863538     0.09768629624     0.09768630564
   0.007426489725      0.0976145216     0.09761264212     0.09761061685     0.09760865789     0.09760837119     0.09760828087     0.09760828749
   0.007676922139       0.097538314     0.09753358587     0.09753334994     0.09753096882     0.09753057748     0.09753044308     0.09753044413
   0.007927354552     0.09746233224     0.09745506908     0.09745630083     0.09745350046      0.0974529784       0.097452785      0.0974527768
   0.008177786965     0.09738651014      0.0973772367     0.09737943243     0.09737625441     0.09737557409     0.09737530244     0.09737528033
   0.008428219379     0.09731077036     0.09730018543     0.09730271653     0.09729924848     0.09729838333     0.09729800955     0.09729796754
   0.008678651792     0.09723496677     0.09722391204     0.09722609335     0.09722247083     0.09722139856     0.09722089414      0.0972208243
   0.008929084205     0.09715894975     0.09714836722      0.0971495234     0.09714592327     0.09714463009     0.09714396262     0.09714385445
   0.009179516619     0.09708259495     0.09707344424     0.09707297369     0.09706959782     0.09706808304     0.09706721757     0.09706705732
   0.009429949032     0.09700582725     0.09699899338     0.09699643064     0.09699348032     0.09699176083     0.09699066222     0.09699043229
   0.009680381446     0.09692864479      0.0969248309     0.09691990545     0.09691755055     0.09691566414     0.09691430037     0.09691397873
   0.009930813859     0.09685112906     0.09685074901     0.09684343512     0.09684178327     0.09683978992     0.09683813632     0.09683769604
    0.01018124627     0.09677342816     0.09677653032     0.09676708084     0.09676615049     0.09676413048     0.09676217457     0.09676158366
    0.01043167869     0.09669574612     0.09670197075     0.09669092127     0.09669062524     0.09668867296     0.09668641943     0.09668564106
     0.0106821111     0.09661832012     0.09662690653      0.0966150402     0.09661518569     0.09661339923     0.09661087453      0.0966098678
    0.01093254351     0.09654139046     0.09655124101     0.09653951008     0.09653981872     0.09653828674     0.09653554211     0.09653426349
    0.01118297593     0.09646516869     0.09647496355     0.09646437248     0.09646452294     0.09646331044     0.09646042238     0.09645882782
    0.01143340834     0.09638981063     0.09639817011     0.09638962496      0.0963893099     0.09638844564     0.09638551277     0.09638356049
    0.01168384075     0.09631539126     0.09632105943      0.0963152143     0.09631420238     0.09631367129      0.0963108074     0.09630846127
    0.01193427317     0.09624188983     0.09624389812     0.09624103748     0.09623922981     0.09623897309     0.09623629647     0.09623352993
    0.01218470558     0.09616918845     0.09616700163     0.09616695705     0.09616442424     0.09616434839     0.09616196908     0.09615876946
    0.01243513799     0.09609707502     0.09609067598     0.09609281336     0.09608980081     0.09608979423     0.09608780156     0.09608417402
    0.01268557041     0.09602529458     0.09601518498     0.09601846698     0.09601536848     0.09601532386     0.09601377659     0.09600974722
    0.01293600282     0.09595359146     0.09594069662     0.09594381797     0.09594111257     0.09594095171      0.0959398725     0.09593548992
    0.01318643523     0.09588175795     0.09586726516     0.09586883585     0.09586699718     0.09586669252     0.09586606805     0.09586140325
    0.01343686765     0.09580965593     0.09579483068     0.09579357714     0.09579297162     0.09579255665     0.09579234423     0.09578748869
    0.01368730006     0.09573723005     0.09572324519     0.09571818761      0.0957189804     0.09571854631     0.09571868591     0.09571374801
    0.01393773247     0.09566450737      0.0956523103      0.0956428885     0.09564497678     0.09564465452     0.09564508295     0.09564018329
    0.01418816489     0.09559158782     0.09558180645     0.09556794868     0.09557093995     0.09557086767      0.0955715309     0.09556679683
     0.0144385973     0.09551862333     0.09551151544     0.09549364266     0.09549688432     0.09549717175     0.09549803106     0.09549359103
    0.01468902971     0.09544578599     0.09544122135     0.09542020188     0.09542287134      0.0954235584     0.09542459022     0.09542056827
    0.01493946213     0.09537322102     0.09537073363     0.09534776632     0.09534900619     0.09535003015     0.09535122007     0.09534773062
    0.01518989454     0.09530100007     0.09529990647       0.095276354     0.09527542794     0.09527661216     0.09527793686     0.09527507958
    0.01544032695     0.09522908739     0.09522865931     0.09520584286     0.09520228854     0.09520335474     0.09520476139     0.09520261566
    0.01569075937     0.09515732109     0.09515699322     0.09513599111     0.09512972661     0.09513033152     0.09513171903     0.09513033791
    0.01594119178     0.09508544016     0.09508498534     0.09506648381     0.09505784179      0.0950576327     0.09505883887     0.09505824344
    0.01619162419     0.09501315678     0.09501274057     0.09499698148     0.09498666939     0.09498535133     0.09498615218     0.09498632694
    0.01644205661     0.09494024633     0.09494036475     0.09492717675     0.09491616546     0.09491356628     0.09491369509      0.0949145803
    0.01669248902     0.09486661751     0.09486821431     0.09485693189     0.09484620751     0.09484232623     0.09484150641     0.09484299239
    0.01694292143     0.09479234176     0.09479674097     0.09478623439     0.09477661513     0.09477163592     0.09476962403      0.0947715491
    0.01719335385     0.09471764596     0.09472586965      0.0947151817      0.0947071656     0.09470144738     0.09469808272     0.09470023371
    0.01744378626     0.09464287802     0.09465503192     0.09464404241     0.09463762929      0.0946316633     0.09462690916     0.09462902783
    0.01769421867     0.09456844919     0.09458394302     0.09457306854     0.09456780879     0.09456213885     0.09455611686     0.09455791267
    0.01794465109     0.09449476217      0.0945123031     0.09450234784     0.09449758109     0.09449270454     0.09448570128     0.09448687092
     0.0181950835     0.09442214286     0.09443982189     0.09443176645     0.09442691805     0.09442318139     0.09441563643     0.09441588863
    0.01844551591      0.0943507937     0.09436644856      0.0943610258     0.09435589631     0.09435341025     0.09434587401     0.09434495729
    0.01869594833     0.09428077237     0.09429242841     0.09428973235     0.09428467735     0.09428328776     0.09427634511     0.09427407547
    0.01894638074     0.09421198928     0.09421822405     0.09421754495      0.0942134569     0.09421278835     0.09420696472     0.09420325006
    0.01919681315     0.09414422429     0.09414440516      0.0941443412     0.09414240769     0.09414197704     0.09413764332      0.0941325016
    0.01944724557     0.09407714292     0.09407150812     0.09407030773     0.09407160355     0.09407097982     0.09406827788     0.09406184491
    0.01969767798     0.09401038296     0.09399996075      0.0939959468     0.09400102042     0.09399998079     0.09399879298     0.09399131672
    0.01994811039     0.09394361763     0.09392999628     0.09392191185     0.09393052749     0.09392915773     0.09392913529     0.09392095451
    0.02019854281     0.09387661043     0.09386163034     0.09384887163     0.09385994158     0.09385864134     0.09385929006      0.0938507982
    0.02044897522     0.09380923455      0.0937946803     0.09377740105     0.09378910526     0.09378848082     0.09378928729     0.09378088606
    0.02069940763     0.09374145749     0.09372881906      0.0937078533     0.09371797197     0.09371863158      0.0937192001     0.09371124988
    0.02094984005     0.09367330772     0.09366363584      0.0936402569     0.09364666404     0.09364897438     0.09364913346     0.09364191076
    0.02120027246     0.09360482967     0.09359871885     0.09357430405     0.09357547102     0.09357936468     0.09357920507     0.09357287669
    0.02145070487     0.09353604853      0.0935337112     0.09350944476     0.09350479218     0.09350969556     0.09350952263     0.09350414196
    0.02170113729     0.09346696018     0.09346831325     0.09344501218     0.09343503839     0.09343995008     0.09344016193     0.09343568803
     0.0219515697     0.09339754539     0.09340230054     0.09338032655     0.09336651667     0.09337022654     0.09337115122     0.09336748497
    0.02220200211      0.0933277953     0.09333552909     0.09331482905     0.09329932534     0.09330073158     0.09330246652     0.09329949352
    0.02245243453     0.09325773717     0.09326796593     0.09324818443     0.09323330664     0.09323173052     0.09323404323     0.09323166731
    0.02270286694     0.09318745142     0.09319967501     0.09318031723      0.0931680856      0.0931634582     0.09316579812     0.09316395614
    0.02295329935     0.09311707965     0.09313074689      0.0931113941     0.09310314049     0.09309603572     0.09309765753     0.09309631026
    0.02320373177     0.09304681946     0.09306134903     0.09304176425     0.09303790865     0.09302942822     0.09302958088     0.09302868558
    0.02345416418     0.09297690969     0.09299168862     0.09297186902     0.09297191257     0.09296343967     0.09296157422     0.09296104894
    0.02370459659     0.09290760654     0.09292197727     0.09290214081     0.09290486684     0.09289774042     0.09289368814     0.09289338274
    0.02395502901     0.09283915274     0.09285240518     0.09283291149     0.09283673726     0.09283193903     0.09282599698     0.09282568769
    0.02420546142     0.09277174349     0.09278313253     0.09276436079     0.09276773297     0.09276568242     0.09275857015     0.09275798359
    0.02445589384     0.09270549703     0.09271433677     0.09269651515     0.09269824173     0.09269874535     0.09269144588     0.09269030749
    0.02470632625     0.09264043033     0.09264623026      0.0926292775     0.09262873232     0.09263108385     0.09262461442     0.09262270988
    0.02495675866     0.09257644073     0.09257897406      0.0925624818      0.0925596466     0.09256283756     0.09255801575     0.09255524903
    0.02520719108     0.09251329834     0.09251266087     0.09249595664     0.09249131195     0.09249428801      0.0924915549     0.09248798427
    0.02545762349     0.09245066895     0.09244730285     0.09242957642     0.09242388482      0.0924257903     0.09242513065     0.09242096844
     0.0257080559     0.09238816053     0.09238281878     0.09236328605     0.09235734189     0.09235768492     0.09235866455     0.09235424024
    0.02595848832     0.09232538578     0.09231904167      0.0922970982      0.0922915165       0.092290224     0.09229211888     0.09228781772
    0.02620892073     0.09226199662     0.09225574681     0.09223106869     0.09222616302     0.09222352171     0.09222550355     0.09222169404
    0.02645935314     0.09219771094     0.09219268715     0.09216526005     0.09216103029     0.09215754464     0.09215887364     0.09215583628
    0.02670978556     0.09213237441     0.09212961343     0.09209970814      0.0920959262     0.09209214225     0.09209231094     0.09209018822
    0.02696021797      0.0920659809     0.09206630284     0.09203440443      0.0920307524     0.09202710355     0.09202590465     0.09202467678
    0.02721065038     0.09199867701     0.09200256582     0.09196929751     0.09196550252     0.09196221964     0.09195972943     0.09195922176
     0.0274610828     0.09193073117      0.0919382628     0.09190431409     0.09190023323     0.09189733492     0.09189383215     0.09189374791
    0.02771151521     0.09186248059     0.09187331793     0.09183938783      0.0918350242     0.09183237528     0.09182822935     0.09182819777
    0.02796194762     0.09179427037      0.0918077172     0.09177447794     0.09176994058     0.09176735078     0.09176291234     0.09176254281
    0.02821238004     0.09172639772     0.09174149337     0.09170957181     0.09170500817     0.09170233396     0.09169785739     0.09169679065
    0.02846281245     0.09165907258     0.09167473498     0.09164467501     0.09164020869     0.09163742218      0.0916330374     0.09163098633
    0.02871324486     0.09159240053     0.09160758454     0.09157979284      0.0915754937     0.09157269766     0.09156843073     0.09156520684
    0.02896367728     0.09152638615     0.09154023396     0.09151491053     0.09151080852     0.09150819737     0.09150402412     0.09149955002
    0.02921410969     0.09146095252     0.09147291214     0.09144998396     0.09144611418     0.09144390123     0.09143980892     0.09143411981
     0.0294645421     0.09139596974     0.09140586539     0.09138494746     0.09138139869     0.09137974001     0.09137577378     0.09136900939
    0.02971497452     0.09133128555     0.09133933169     0.09131973585     0.09131667482     0.09131561808      0.0913118973     0.09130428532
    0.02996540693     0.09126675462     0.09127351473      0.0912543121     0.09125196778     0.09125144232     0.09124814346     0.09123997618
    0.03021583934     0.09120225662     0.09120856275      0.0911886906     0.09118729917     0.09118714788     0.09118446146      0.0911760682
    0.03046627176     0.09113772144     0.09114455216     0.09112295515     0.09112268215     0.09112272083     0.09112079792     0.09111251606
    0.03071670417     0.09107311116     0.09108146188     0.09105722316     0.09105808997     0.09105816985     0.09105707722     0.09104922391
    0.03096713658     0.09100845605     0.09101925128     0.09099166923      0.0909935093      0.0909935583     0.09099325643     0.09098610134
      0.031217569     0.09094382405     0.09095781433     0.09092646643     0.09092892774      0.0909289561     0.09092930654     0.09092304977
    0.03146800141     0.09087931351      0.0908969879     0.09086176535     0.09086435794     0.09086442933     0.09086522667     0.09085998447
    0.03171843382     0.09081503562      0.0908365748     0.09079767431     0.09079984741      0.0908000292     0.09080104637     0.09079684693
    0.03196886624     0.09075109398     0.09077636838     0.09073425144      0.0907354766     0.09073578963     0.09073682275     0.09073361278
    0.03221929865     0.09068756479     0.09071617484     0.09067150769     0.09067134616     0.09067173268     0.09067263233     0.09067029423
    0.03246973106     0.09062448167     0.09065583148     0.09060941799     0.09060755848     0.09060787833     0.09060855957     0.09060693638
    0.03272016348     0.09056182975     0.09059522039     0.09054793369     0.09054419988     0.09054425378     0.09054468433     0.09054360847
    0.03297059589     0.09049955121     0.09053427711     0.09048698785      0.0904813281     0.09048089782     0.09048107074     0.09048039154
     0.0332210283     0.09043756159     0.09047299149     0.09042649188     0.09041896748     0.09041785853     0.09041775945      0.0904173638
    0.03347146072      0.0903757722     0.09041139688     0.09036632806     0.09035711119     0.09035518514     0.09035476466     0.09035458614
    0.03372189313     0.09031411115       0.090349547     0.09030634478       0.090295727     0.09029291735      0.0902920765     0.09029209088
    0.03397232554     0.09025253653     0.09028749818     0.09024635956     0.09023476238     0.09023107544      0.0902296684     0.09022987606
    0.03422275796     0.09019103796     0.09022529565     0.09018617119     0.09017414637       0.090169654     0.09016750759     0.09016790658
    0.03447319037     0.09012962291      0.0901629674     0.09012558118     0.09011378848     0.09010861977     0.09010556583     0.09010612147
    0.03472362278     0.09006829644     0.09010053985     0.09006442152     0.09005357692     0.09004791337     0.09004382749     0.09004444546
     0.0349740552     0.09000704473     0.09003804629     0.09000258417     0.08999337965     0.08998745403     0.08998229269     0.08998280365
    0.03522448761     0.08994582503     0.08997553121     0.08994004665     0.08993305154     0.08992714566     0.08992097457     0.08992113585
    0.03547492002     0.08988456873     0.08991305301     0.08987688727     0.08987244915     0.08986688321     0.08985989143     0.08985940767
    0.03572535244     0.08982319756     0.08985068564      0.0898132846     0.08981145184      0.0898065594     0.08979905562     0.08979761582
    0.03597578485     0.08976165019     0.08978851448      0.0897494975     0.08974998517     0.08974607296     0.08973846223     0.08973578704
    0.03622621726     0.08969990656     0.08972661847     0.08968582546     0.08968804074     0.08968533939     0.08967808091      0.0896739714
    0.03647664968     0.08963800523     0.08966505459     0.08962255536     0.08962568695     0.08962430307     0.08961785354     0.08961223218
    0.03672708209       0.089576054     0.08960384718     0.08955990666     0.08956306611     0.08956294838     0.08955769895     0.08955063436
     0.0369775145     0.08951420346     0.08954299265     0.08949798967     0.08950037704      0.0895013076     0.08949752442     0.08948923388
    0.03722794692     0.08945262447     0.08948247543     0.08943678913     0.08943784468     0.08943946256      0.0894372414      0.0894280702
    0.03747837933      0.0893914333     0.08942228885     0.08937617999     0.08937568216     0.08937753745     0.08937678258     0.08936716304
    0.03772881174     0.08933076973     0.08936245224     0.08931597334     0.08931405304     0.08931568321     0.08931611648     0.08930651328
    0.03797924416     0.08927063211     0.08930301395     0.08925597644     0.08925304212     0.08925405481     0.08925525623     0.08924610666
    0.03822967657       0.089210953     0.08924403645     0.08919604467      0.0891926423     0.08919278565     0.08919425978     0.08918591903
    0.03848010898     0.08915158962     0.08918556495      0.0891361098      0.0891327619     0.08913196427     0.08913322146      0.0891259218
     0.0387305414      0.0890923423     0.08912759607     0.08907617924     0.08907325009     0.08907161906     0.08907225641     0.08906608677
    0.03898097381     0.08903299473      0.0890700621     0.08901631029     0.08901393358     0.08901171489     0.08901148086     0.08900638934
    0.03923140622     0.08897336444     0.08901283412     0.08895657279     0.08895465432     0.08895216322     0.08895099241     0.08894680969
    0.03948183864     0.08891334024     0.08895574228     0.08889701648     0.08889529883     0.08889284313     0.08889085386     0.08888733275
    0.03973227105     0.08885288605     0.08889860598     0.08883765503     0.08883581278     0.08883362822     0.08883108395     0.08882794761
    0.03998270346     0.08879208121     0.08884126212     0.08877846885     0.08877619962     0.08877441223     0.08877165637     0.08876864691
    0.04023313588     0.08873104109     0.08878358271     0.08871942019     0.08871650703     0.08871512786     0.08871250714     0.08870942612
    0.04048356829     0.08866992424     0.08872548238     0.08866047102     0.08865680785     0.08865575514     0.08865354841     0.08865028303
     0.0407340007      0.0886088955     0.08866692323     0.08860159544     0.08859718186     0.08859631838     0.08859468556      0.0885912175
    0.04098443312     0.08854817578     0.08860790752     0.08854278312     0.08853770233     0.08853687396     0.08853583433      0.0885322314
    0.04123486553     0.08848780769     0.08854846961     0.08848403543     0.08847842835     0.08847749319     0.08847693464     0.08847332852
    0.04148529795     0.08842785724     0.08848870426     0.08842535864     0.08841940137     0.08841824555     0.08841795862     0.08841451405
    0.04173573036     0.08836830122     0.08842876656     0.08836675856      0.0883606438     0.08835918593     0.08835891232     0.08835579387
    0.04198616277     0.08830906502     0.08836885811      0.0883082381     0.08830215819     0.08830034783     0.08829983126     0.08829717356
    0.04223659519     0.08825004146     0.08830919914     0.08824979731      0.0882439274     0.08824174226     0.08824077163     0.08823865773
     0.0424870276     0.08819110228     0.08824999294     0.08819143357     0.08818591688     0.08818336086     0.08818179896     0.08818024953
    0.04273746001     0.08813211063     0.08819139679      0.0881331407     0.08812807997     0.08812518178     0.08812297686      0.0881219507
    0.04298789243     0.08807293648     0.08813351028     0.08807490802     0.08807036573     0.08806717639     0.08806435745     0.08806376156
    0.04323832484     0.08801347163     0.08807636671     0.08801672154     0.08801272734     0.08800931605     0.08800597497     0.08800568098
    0.04348875725     0.08795364293     0.08801992779     0.08795856939     0.08795512853     0.08795157783     0.08794784329     0.08794770607
    0.04373918967     0.08789343622     0.08796409373     0.08790045071     0.08789754629     0.08789394859     0.08788995726     0.08788983161
    0.04398962208     0.08783290169     0.08790871474     0.08784238493     0.08783996965     0.08783642611     0.08783229742     0.08783204948
    0.04424005449     0.08777216306     0.08785361114     0.08778441782     0.08778239637     0.08777901676     0.08777483661     0.08777434851
    0.04449048691     0.08771138819     0.08779858987     0.08772662025     0.08772483034     0.08772172982     0.08771754718     0.08771671504
    0.04474091932      0.0876507833      0.0877434604     0.08766907735     0.08766728173     0.08766457007     0.08766040696     0.08765913467
    0.04499135173     0.08759054264     0.08768805389     0.08761186984     0.08760977059     0.08760753138     0.08760340271      0.0876015948
    0.04524178415     0.08753082992     0.08763224558     0.08755505542     0.08755233133     0.08755059436      0.0875465301     0.08754408779