# Probe 0 (0.4 0.005 1.4)
# Probe 1 (0.9 0.005 1.4)
# Probe 2 (1.4 0.005 1.4)
# Probe 3 (1.9 0.005 1.4)
# Probe 4 (2.4 0.005 1.4)
# Probe 5 (2.9 0.005 1.4)
# Probe 6 (3.4 0.005 1.4)
# Probe 7 (3.9 0.005 1.4)
# Probe 8 (4.4 0.005 1.4)
# Probe 9 (4.9 0.005 1.4)
# Probe 10 (5.4 0.005 1.4)
# Probe 11 (5.9 0.005 1.4)
# Probe 12 (6.4 0.005 1.4)
# Probe 13 (6.9 0.005 1.4)
# Probe 14 (7.4 0.005 1.4)
# Probe 15 (7.9 0.005 1.4)
# Probe 16 (8.4 0.005 1.4)
#           Probe                 0                 1                 2                 3                 4                 5                 6                 7                 8                 9                10                11                12                13                14                15                16
#            Time
    1.1999904e-06            293.15            293.15            293.15            293.15       293.1541597            293.15            293.15            293.15            293.15            293.15            293.15            293.15            293.15            293.15            293.15            293.15            293.15
  2.639965056e-06            293.15            293.15            293.15       293.1500001       293.1591509            293.15            293.15            293.15       293.1499999            293.15            293.15            293.15            293.15            293.15            293.15            293.15            293.15
  4.367944597e-06            293.15            293.15            293.15       293.1500002       293.1651398            293.15            293.15            293.15       293.1499999            293.15            293.15            293.15            293.15            293.15            293.15            293.15            293.15
  6.441505713e-06            293.15            293.15            293.15       293.1500005       293.1723255       293.1500001            293.15            293.15       293.1499998       293.1499999            293.15            293.15            293.15            293.15            293.15            293.15            293.15
   8.92973777e-06            293.15            293.15            293.15        293.150001       293.1809472       293.1500003            293.15            293.15       293.1499998       293.1499999            293.15            293.15            293.15            293.15            293.15            293.15            293.15
  1.191552707e-05            293.15            293.15            293.15       293.1500019       293.1912907       293.1500006            293.15            293.15       293.1499997       293.1499999            293.15            293.15            293.15            293.15            293.15            293.15            293.15
  1.549838863e-05            293.15            293.15            293.15       293.1500037       293.2036993       293.1500013            293.15            293.15       293.1499996       293.1499998            293.15            293.15            293.15            293.15            293.15            293.15            293.15
  1.979776087e-05            293.15            293.15            293.15       293.1500069       293.2185824       293.1500026            293.15            293.15       293.1499995       293.1499998            293.15            293.15            293.15            293.15            293.15            293.15            293.15
  2.495674128e-05            293.15            293.15            293.15       293.1500125       293.2364306       293.1500052            293.15            293.15       293.1499994       293.1499997            293.15            293.15            293.15            293.15            293.15            293.15            293.15
  3.114713435e-05            293.15            293.15            293.15       293.1500226       293.2578288       293.1500101            293.15            293.15       293.1499992       293.1499997            293.15            293.15            293.15            293.15            293.15            293.15            293.15
  3.857523794e-05            293.15            293.15            293.15       293.1500405       293.2834728       293.1500191            293.15            293.15        293.149999       293.1499996            293.15            293.15            293.15            293.15            293.15            293.15            293.15
  4.748896225e-05            293.15            293.15            293.15       293.1500718       293.3141873       293.1500356            293.15            293.15       293.1499988       293.1499995            293.15            293.15            293.15            293.15            293.15            293.15            293.15
  5.818543142e-05            293.15            293.15            293.15       293.1501266       293.3509415       293.1500654            293.15            293.15       293.1499986       293.1499994            293.15            293.15            293.15            293.15            293.15            293.15            293.15
  7.102064463e-05            293.15            293.15            293.15       293.1502224       293.3948624       293.1501188            293.15            293.15       293.1499982       293.1499992            293.15            293.15            293.15            293.15            293.15            293.15            293.15
  8.642131685e-05            293.15            293.15       293.1500001       293.1503891       293.4472417       293.1502139            293.15            293.15       293.1499979        293.149999            293.15            293.15            293.15            293.15            293.15            293.15            293.15
  0.0001049009832            293.15            293.15       293.1500002       293.1506787        293.509533        293.150382       293.1500001            293.15       293.1499974       293.1499988            293.15            293.15            293.15            293.15            293.15            293.15            293.15
  0.0001270765827            293.15            293.15       293.1500004       293.1511805       293.5833073       293.1506775       293.1500002            293.15       293.1499969       293.1499986            293.15            293.15            293.15            293.15            293.15            293.15            293.15
  0.0001536896689            293.15            293.15       293.1500011       293.1520473       293.6701534       293.1511943       293.1500004            293.15       293.1499962       293.1499983            293.15            293.15            293.15            293.15            293.15            293.15            293.15
  0.0001856219625            293.15            293.15       293.1500029       293.1535383       293.7714427       293.1520929       293.1500011            293.15       293.1499954       293.1499979            293.15            293.15            293.15            293.15            293.15            293.15            293.15
  0.0002239407148            293.15            293.15       293.1500074       293.1560892       293.8879988       293.1536452       293.1500028            293.15       293.1499945       293.1499974            293.15            293.15            293.15            293.15            293.15            293.15            293.15
  0.0002699019884            293.15            293.15       293.1500187       293.1604175       294.0193361       293.1563048        293.150007            293.15       293.1499934       293.1499969            293.15            293.15            293.15            293.15            293.15            293.15            293.15
  0.0003250351347            293.15       293.1500001       293.1500466       293.1676797          294.1627       293.1608149       293.1500176            293.15        293.149992       293.1499962            293.15            293.15            293.15            293.15            293.15            293.15            293.15
  0.0003911802278            293.15       293.1500002       293.1501153       293.1796665       294.3113421       293.1683581       293.1500439            293.15       293.1499904       293.1499953            293.15            293.15            293.15            293.15            293.15            293.15            293.15
  0.0004705543394            293.15       293.1500007       293.1502816       293.1989797       294.4521894       293.1807324       293.1501086            293.15       293.1499885       293.1499943            293.15            293.15            293.15            293.15            293.15            293.15            293.15
  0.0005658032734            293.15       293.1500023       293.1506774       293.2289887       294.5631247       293.2004699       293.1502654            293.15       293.1499862       293.1499928            293.15            293.15            293.15            293.15            293.15            293.15            293.15
  0.0006799700095            293.15       293.1500081        293.151594       293.2730825       294.6113223       293.2306482        293.150638       293.1500004       293.1499835        293.149991       293.1499999            293.15            293.15            293.15            293.15            293.15            293.15
  0.0008169700928            293.15       293.1500274       293.1536437       293.3327263       294.5560251       293.2740995       293.1515015       293.1500021       293.1499804       293.1499885       293.1499998            293.15            293.15            293.15            293.15            293.15            293.15
  0.0009814618316       293.1500003       293.1500902       293.1580069       293.4032288       294.3605831       293.3310865       293.1534288       293.1500101       293.1499768       293.1499852       293.1499996            293.15            293.15            293.15            293.15            293.15            293.15
   0.001179117227       293.1500013       293.1502852       293.1666619       293.4682882       294.0208488       293.3952356       293.1574986       293.1500441        293.149973       293.1499808       293.1499991            293.15            293.15            293.15            293.15            293.15            293.15
   0.001416111804       293.1500067       293.1508511       293.1821236       293.4980762       293.6044308       293.4490044       293.1653872       293.1501748       293.1499703       293.1499749       293.1499981       293.1499999            293.15            293.15            293.15            293.15            293.15
   0.001666544217       293.1500258       293.1521113       293.2031676        293.469287       293.2837208       293.4663961       293.1772265       293.1505399       293.1499738        293.149968       293.1499963       293.1499999            293.15            293.15            293.15            293.15            293.15
   0.001916976631       293.1500776       293.1543662       293.2259978       293.3999112       293.1140246       293.4430386       293.1916597        293.151326       293.1499932       293.1499606       293.1499935       293.1499996            293.15            293.15            293.15            293.15            293.15
   0.002167409044       293.1501966       293.1578832       293.2463976       293.3188591       293.0537756       293.3902327       293.2067163         293.15277       293.1500478       293.1499533       293.1499896       293.1499992            293.15            293.15            293.15            293.15            293.15
   0.002417841458       293.1504385       293.1627791       293.2602659       293.2484776       293.0537441       293.3258365       293.2199002       293.1551137       293.1501705       293.1499472       293.1499842       293.1499985            293.15            293.15            293.15            293.15            293.15
   0.002668273871       293.1508836       293.1689388       293.2649714       293.2018207       293.0855748       293.2666557       293.2288638       293.1585404       293.1504118       293.1499451       293.1499772       293.1499974       293.1499999            293.15            293.15            293.15            293.15
   0.002918706284       293.1516363       293.1759803       293.2601455       293.1797166       293.1312336       293.2222074       293.2320612       293.1631052       293.1508412       293.1499525       293.1499687       293.1499955       293.1499998            293.15            293.15            293.15            293.15
   0.003169138698       293.1528193       293.1832818        293.247593       293.1761277       293.1789268       293.1945875       293.2291335       293.1686789       293.1515452       293.1499778       293.1499592       293.1499927       293.1499996            293.15            293.15            293.15            293.15
   0.003419571111       293.1545619       293.1900591       293.2304572       293.1851897       293.2181585       293.1831672       293.2208793       293.1749245       293.1526217       293.1500342       293.1499498       293.1499887       293.1499992            293.15            293.15            293.15            293.15
   0.003670003524       293.1569819       293.1954868       293.2122611       293.2017204       293.2380829       293.1849832       293.2089566       293.1813097       293.1541667       293.1501418       293.1499427       293.1499832       293.1499985       293.1499999            293.15            293.15            293.15
   0.003920435938       293.1601634       293.1988531       293.1961745       293.2215609       293.2336449       293.1954963       293.1954324       293.1871511        293.156258       293.1503281       293.1499415       293.1499762       293.1499974       293.1499998            293.15            293.15            293.15
   0.004170868351        293.164132       293.1996887       293.1842455       293.2406639        293.208625       293.2096863       293.1822283       293.1917077       293.1589339        293.150629       293.1499516        293.149968       293.1499957       293.1499997            293.15            293.15            293.15
   0.004421300765       293.1688298       293.1978468       293.1771315       293.2557813       293.1727942       293.2230692       293.1708386       293.1943095       293.1621714       293.1510901       293.1499794       293.1499592       293.1499932       293.1499994            293.15            293.15            293.15
   0.004671733178        293.174095       293.1935351       293.1746077       293.2650978       293.1358029       293.2322338       293.1622548       293.1944851       293.1658659       293.1517629        293.150034       293.1499513       293.1499896       293.1499989       293.1499999            293.15            293.15
   0.004922165591       293.1796568       293.1873082       293.1757403       293.2687234       293.1035248       293.2355942       293.1568332       293.1920635        293.169817       293.1527015       293.1501278       293.1499466       293.1499849       293.1499982       293.1499999            293.15            293.15
   0.005172598005       293.1851418       293.1800311       293.1790683       293.2683211       293.0781791       293.2336685        293.154279       293.1872382       293.1737258       293.1539562       293.1502768       293.1499484       293.1499791       293.1499971       293.1499998            293.15            293.15
   0.005423030418       293.1901072       293.1726984       293.1830805       293.2662505       293.0589278        293.228489       293.1538503       293.1805596       293.1772165       293.1555646       293.1505034       293.1499607       293.1499723       293.1499956       293.1499997            293.15            293.15
   0.005673462831       293.1941006       293.1661757       293.1867683       293.2646809       293.0424174       293.2225535       293.1547158       293.1728533       293.1798813       293.1575404       293.1508345       293.1499888       293.1499653       293.1499933       293.1499994            293.15            293.15
   0.005923895245       293.1967362       293.1611008       293.1898172       293.2649298       293.0258843       293.2177974       293.1562321       293.1650772       293.1813445       293.1598604        293.151302       293.1500384       293.1499592       293.1499904        293.149999       293.1499999            293.15
   0.006174327658       293.1977671       293.1578791       293.1924658       293.2672711       293.0081008       293.2150869       293.1580794       293.1581214        293.181338        293.162453       293.1519409        293.150117       293.1499559       293.1499867       293.1499984       293.1499999            293.15
   0.006424760072       293.1971349       293.1566964       293.1952405        293.271179       292.9891389       293.2143028        293.160254       293.1526528        293.179765       293.1651905       293.1527872       293.1502352       293.1499578       293.1499823       293.1499975       293.1499998            293.15
   0.006675192485        293.194981       293.1575566       293.1986889       293.2758228       292.9698673       293.2147839       293.1629432       293.1490726       293.1767392       293.1678895       293.1538731       293.1504063       293.1499681       293.1499776       293.1499963       293.1499996            293.15
   0.006925624898       293.1916182       293.1603484       293.2031848       293.2805241       292.9510672       293.2158171       293.1663655       293.1475391       293.1725869       293.1703239       293.1552211       293.1506473       293.1499899        293.149973       293.1499946       293.1499994            293.15
   0.007176057312       293.1875093       293.1648868       293.2088383       293.2849752       292.9330148       293.2169449       293.1706549       293.1479829       293.1678189       293.1722523       293.1568365       293.1509789       293.1500271       293.1499696       293.1499924        293.149999       293.1499999
   0.007426489725       293.1831772       293.1709231       293.2155076       293.2890855       292.9132918        293.217532       293.1757941       293.1501785       293.1630594       293.1734564       293.1586998       293.1514242       293.1500846       293.1499687       293.1499897       293.1499985       293.1499999
   0.007676922139       293.1790921       293.1782148       293.2228804       293.2928558       292.8930885       293.2182931       293.1816117       293.1539088       293.1589533       293.1737825       293.1607604       293.1520089       293.1501688       293.1499722       293.1499865       293.1499978       293.1499998
   0.007927354552       293.1756805         293.18646       293.2305743       293.2963387        292.873985       293.2189355       293.1878325       293.1589608       293.1560889       293.1731814       293.1629324        293.152758       293.1502885       293.1499821        293.149983       293.1499968       293.1499997
   0.008177786965        293.173339       293.1953007       293.2382094       293.2996403       292.8561634        293.219232       293.1941344       293.1650701       293.1549235       293.1717348       293.1650968       293.1536944       293.1504554        293.150001       293.1499797       293.1499955       293.1499995
   0.008428219379       293.1724695       293.2042134       293.2453593       293.3022436       292.8373586       293.2187896       293.2000708       293.1718752       293.1557189       293.1696669       293.1671097       293.1548323       293.1506837       293.1500317       293.1499771       293.1499938       293.1499993
   0.008678651792       293.1734288       293.2125459       293.2516029       293.3038632       292.8169146       293.2173291       293.2051259       293.1789744       293.1585306       293.1673249       293.1688223       293.1561756       293.1509905        293.150078       293.1499764       293.1499918       293.1499989
   0.008929084205       293.1764426       293.2196143       293.2565405        293.304159       292.7946366       293.2145367       293.2088073       293.1859102       293.1632157       293.1651467       293.1701045        293.157712       293.1513952       293.1501448       293.1499787       293.1499894       293.1499983
   0.009179516619        293.181636       293.2247855       293.2597814       293.3029241       292.7708059       293.2102457       293.2106837       293.1921638       293.1694512        293.163601       293.1708713       293.1594096       293.1519192       293.1502386       293.1499857        293.149987       293.1499976
   0.009429949032       293.1888118       293.2276406       293.2610245       293.3001956       292.7459375       293.2043807       293.2105263        293.197195        293.176753       293.1631116       293.1711074       293.1612159       293.1525837       293.1503681       293.1499994       293.1499848       293.1499966
   0.009680381446       293.1974538       293.2279889       293.2601537       293.2962726       292.7206322       293.1971382       293.2083481       293.2005156       293.1845011       293.1639866       293.1708796       293.1630591       293.1534081       293.1505438       293.1500215       293.1499832       293.1499954
   0.009930813859       293.2067694       293.2259134       293.2572998       293.2916669       292.6955461       293.1889175       293.2044113       293.2017634       293.1919732       293.1663673        293.170338       293.1648539       293.1544069       293.1507786       293.1500547       293.1499832       293.1499939
    0.01018124627       293.2157672       293.2218434       293.2528545       293.2870199       292.6713889       293.1803244       293.1992118       293.2008531       293.1984008       293.1701888       293.1697061        293.166511       293.1555868       293.1510873       293.1501025       293.1499855       293.1499921
    0.01043167869       293.2233669       293.2164843       293.2474383       293.2829583       292.6488611        293.172104       293.1934368       293.1979515       293.2030532       293.1751534       293.1692507       293.1679498       293.1569433       293.1514861       293.1501697       293.1499915       293.1499902
     0.0106821111        293.228529       293.2107139       293.2418395       293.2802563       292.6284242       293.1650519       293.1878923       293.1934914       293.2053396       293.1807377       293.1692347       293.1691116       293.1584584       293.1519921        293.150263       293.1500023       293.1499884
    0.01093254351       293.2304146       293.2054629       293.2369387       293.2793861       292.6103822       293.1599157       293.1834083       293.1881236       293.2049049       293.1862441       293.1698636         293.16997       293.1600985       293.1526222       293.1503903       293.1500196       293.1499869
    0.01118297593       293.2285185       293.2015749       293.2335808       293.2806479       292.5949445       293.1572319       293.1807285       293.1826305       293.2017049       293.1908857       293.1712334       293.1705377        293.161814       293.1533911       293.1505613       293.1500455       293.1499863
    0.01143340834       293.2228247       293.1996758       293.2324504       293.2841321       292.5821926       293.1572876       293.1804095       293.1778113       293.1960901        293.193893       293.1732899       293.1708662       293.1635417       293.1543095       293.1507873       293.1500827       293.1499874
    0.01168384075       293.2139195        293.200072       293.2339632       293.2897244       292.5720233       293.1600886       293.1827335       293.1743606       293.1887596        293.194669       293.1758177       293.1710366       293.1652085       293.1553822       293.1510813       293.1501352        293.149991
    0.01193427317        293.203132       293.2026977        293.238215       293.2971189       292.5641334       293.1653685       293.1876522       293.1727629       293.1806708       293.1928811       293.1784458       293.1711413       293.1667385       293.1566053       293.1514576       293.1502081       293.1499982
    0.01218470558       293.1920311        293.207182       293.2448751       293.3057957       292.5576859       293.1725886       293.1947763        293.173226       293.1729157       293.1885448       293.1806936       293.1712607       293.1680602       293.1579642       293.1519309       293.1503076       293.1500102
    0.01243513799        293.182293       293.2129188       293.2533491       293.3153266       292.5523728       293.1811346       293.2034391       293.1756531       293.1665654       293.1820574       293.1820487       293.1714387        293.169115       293.1594323        293.152516       293.1504413       293.1500282
    0.01268557041       293.1755868       293.2191846       293.2628153       293.3252265       292.5476895       293.1903123       293.2128116       293.1796657       293.1625143       293.1741912       293.1820613        293.171662       293.1698616       293.1609699       293.1532258       293.1506181       293.1500541
    0.01293600282       293.1732322       293.2252965       293.2723688       293.3350378        292.543135       293.1994508       293.2220496       293.1847563       293.1613565       293.1660379       293.1804395       293.1718493       293.1702785       293.1625241       293.1540703       293.1508482        293.150091
    0.01318643523       293.1759989       293.2307675       293.2811178       293.3444124       292.5383203       293.2079722        293.230419       293.1904277       293.1633194       293.1588128       293.1771287       293.1718566       293.1703628       293.1640314        293.155054        293.151143       293.1501428
    0.01343686765       293.1839631       293.2353948       293.2883418        293.353121       292.5329844       293.2154641       293.2373984       293.1962832       293.1682558       293.1536985       293.1723634       293.1715044        293.170126       293.1654204       293.1561745       293.1515146       293.1502144
    0.01368730006       293.1964033       293.2392963       293.2935878       293.3610505       292.5269702       293.2216567       293.2427482       293.2020638       293.1757248       293.1516492       293.1666667       293.1706083       293.1695876       293.1666174       293.1574191       293.1519756       293.1503115
    0.01393773247       293.2121654        293.242875       293.2967562       293.3681471       292.5200609        293.226456       293.2465297       293.2076976       293.1850952       293.1532135       293.1608097        293.169041       293.1687688       293.1675511       293.1587639       293.1525378        293.150441
    0.01418816489       293.2296151       293.2467198        293.298101       293.3743194        292.511432       293.2298919       293.2490737       293.2132634       293.1955906        293.158424       293.1557172       293.1667555        293.167687       293.1681586       293.1601719       293.1532113        293.150611
     0.0144385973       293.2469425       293.2514578       293.2981652       293.3790393       292.4962639        293.231884       293.2509033        293.218942       293.2063476        293.166748       293.1523291       293.1638476       293.1663554       293.1683902       293.1615925       293.1540026       293.1508309
    0.01468902971       293.2625373       293.2575548       293.2976783       293.3759743       292.4002012       293.2309408       293.2526111       293.2249311        293.216517       293.1772241       293.1514249       293.1605637       293.1647884        293.168214       293.1629622       293.1549132       293.1511109
    0.01493946213        293.275269       293.2651748       293.2972372       293.3472519       292.0841643       293.2209407       293.2546752       293.2313444       293.2253614       293.1886019       293.1535011       293.1573016       293.1630132       293.1676194       293.1642076       293.1559377       293.1514622
    0.01518989454        293.284603       293.2740746       293.2970229       293.3012497       291.9164643       293.1969991       293.2572566       293.2381181       293.2323475       293.1995887       293.1586189       293.1545713       293.1610789       293.1666193       293.1652496       293.1570616        293.151896
    0.01544032695       293.2905674       293.2836174       293.2966216       293.2510029       291.9216234       293.1604659       293.2600642       293.2449492       293.2372209       293.2090707       293.1663935       293.1529183       293.1590686       293.1652515       293.1660096       293.1582598       293.1524229
    0.01569075937       293.2935942       293.2929074       293.2951058       293.2108241       292.0189739       293.1192017       293.2623448        293.251276       293.2400375        293.216316       293.1759994       293.1528337       293.1571183       293.1635794       293.1664167       293.1594952       293.1530515
    0.01594119178       293.2943175       293.3008706       293.2914258       293.1897315       292.1310436        293.083867       293.2630549       293.2564058       293.2410804        293.220968       293.1863558       293.1546705        293.155409       293.1616918       293.1664157       293.1607187       293.1537876
    0.01619162419       293.2933934       293.3064379       293.2849671       293.1893921       292.2156532       293.0628303        293.261189       293.2595614       293.2407429       293.2230939        293.196276       293.1585592       293.1541668       293.1597006       293.1659739       293.1618701       293.1546319
    0.01644205661       293.2913693       293.3087557       293.2759572       293.2047416       292.2676925        293.058533       293.2561218       293.2600562       293.2393562       293.2230372       293.2046858       293.1643441       293.1536401       293.1577382       293.1650871       293.1628812       293.1555786