# Probe 0 (2.4 2.295 1.5)
#           Probe                 0
#            Time
    1.1999904e-06            101325
  2.639965056e-06            101325
  4.367944597e-06            101325
  6.441505713e-06            101325
   8.92973777e-06            101325
  1.191552707e-05            101325
  1.549838863e-05            101325
  1.979776087e-05            101325
  2.495674128e-05            101325
  3.114713435e-05            101325
  3.857523794e-05            101325
  4.748896225e-05            101325
  5.818543142e-05            101325
  7.102064463e-05            101325
  8.642131685e-05            101325
  0.0001049009832            101325
  0.0001270765827            101325
  0.0001536896689            101325
  0.0001856219625            101325
  0.0002239407148            101325
  0.0002699019884            101325
  0.0003250351347            101325
  0.0003911802278            101325
  0.0004705543394            101325
  0.0005658032734            101325
  0.0006799700095            101325
  0.0008169700928            101325
  0.0009814618316            101325
   0.001179117227            101325
   0.001416111804       101325.0001
   0.001666544217       101325.0009
   0.001916976631        101325.004
   0.002167409044        101325.014
   0.002417841458       101325.0418
   0.002668273871       101325.1098
   0.002918706284       101325.2597
   0.003169138698       101325.5621
   0.003419571111       101326.1265
   0.003670003524       101327.1086
   0.003920435938       101328.7113
   0.004170868351       101331.1755
   0.004421300765       101334.7551
   0.004671733178       101339.6758
   0.004922165591       101346.0762
   0.005172598005        101353.938
   0.005423030418       101363.0147
   0.005673462831       101372.7785
   0.005923895245       101382.4063
   0.006174327658       101390.8299
   0.006424760072        101396.867
   0.006675192485       101399.4299
   0.006925624898       101397.7783
   0.007176057312       101391.7541
   0.007426489725       101382.0298
   0.007676922139       101369.8858
   0.007927354552       101357.1543
   0.008177786965       101345.8991
   0.008428219379        101338.026
   0.008678651792       101334.9257
   0.008929084205       101337.2459
   0.009179516619       101344.9884
   0.009429949032       101357.5079
   0.009680381446       101373.5388
   0.009930813859       101391.3605
    0.01018124627       101408.9987
    0.01043167869       101424.3735
     0.0106821111       101435.4403
    0.01093254351       101440.4255
    0.01118297593       101438.1782
    0.01143340834       101428.5936
    0.01168384075       101412.8041
    0.01193427317       101392.9034
    0.01218470558        101371.708
    0.01243513799       101352.3511
    0.01268557041       101337.8246
    0.01293600282       101330.4809
    0.01318643523       101331.7008
    0.01343686765       101341.5561
    0.01368730006        101358.716
    0.01393773247       101380.6747
    0.01418816489       101404.3837
     0.0144385973       101426.8653
    0.01468902971       101445.7697
    0.01493946213       101459.7344
    0.01518989454       101468.5156
    0.01544032695       101472.8734
    0.01569075937       101474.1153
    0.01594119178       101473.6824
    0.01619162419       101472.6842
    0.01644205661       101471.6384
    0.01669248902       101470.4729
    0.01694292143       101468.6848
    0.01719335385       101465.5625
    0.01744378626       101460.4683
    0.01769421867       101453.0531
    0.01794465109        101443.472
     0.0181950835       101432.4999
    0.01844551591       101421.4427
    0.01869594833       101411.8784
    0.01894638074       101405.3179
    0.01919681315       101402.8768
    0.01944724557       101405.0306
    0.01969767798       101411.4651
    0.01994811039       101421.1735
    0.02019854281       101432.6209
    0.02044897522       101444.0938
    0.02069940763       101454.2315
    0.02094984005       101462.2308
    0.02120027246        101467.936
    0.02145070487       101471.7888
    0.02170113729       101474.6145
     0.0219515697       101477.3004
    0.02220200211       101480.5098
    0.02245243453       101484.2554
    0.02270286694       101487.8975
    0.02295329935       101490.4126
    0.02320373177       101490.7121
    0.02345416418       101488.0129
    0.02370459659       101482.1119
    0.02395502901       101473.4902
    0.02420546142         101463.26
    0.02445589384       101452.9851
    0.02470632625       101444.4723
    0.02495675866       101439.3518
    0.02520719108       101438.6793
    0.02545762349       101442.8332
     0.0257080559       101451.4561
    0.02595848832        101463.594
    0.02620892073       101477.9099
    0.02645935314       101492.8731
    0.02670978556       101506.9714
    0.02696021797        101518.892
    0.02721065038       101527.7179
     0.0274610828       101532.9591
    0.02771151521       101534.5021
    0.02796194762       101532.4325
    0.02821238004       101526.9796
    0.02846281245       101518.3722
    0.02871324486       101506.8413
    0.02896367728       101492.7331
    0.02921410969       101476.6365
     0.0294645421       101459.4654
    0.02971497452       101442.4193
    0.02996540693       101426.9022
    0.03021583934       101414.3686
    0.03046627176       101406.1362
    0.03071670417        101403.294
    0.03096713658       101406.6318
      0.031217569       101416.4582
    0.03146800141       101432.5256
    0.03171843382       101453.9636
    0.03196886624       101479.2712
    0.03221929865       101506.4648
    0.03246973106        101533.294
    0.03272016348       101557.5448
    0.03297059589       101577.2162
     0.0332210283       101590.6743
    0.03347146072       101596.8892
    0.03372189313       101595.6216
    0.03397232554       101587.5177
    0.03422275796       101574.0493
    0.03447319037       101557.2633
    0.03472362278        101539.297
     0.0349740552       101521.9827
    0.03522448761       101506.7218
    0.03547492002       101494.4258
    0.03572535244       101485.4325
    0.03597578485       101479.4617
    0.03622621726       101475.7544
    0.03647664968       101473.3867
    0.03672708209        101471.534
     0.0369775145       101469.7207
    0.03722794692       101467.8857
    0.03747837933       101466.3235
    0.03772881174       101465.5578
    0.03797924416       101466.1991
    0.03822967657       101468.7858
    0.03848010898       101473.6649
     0.0387305414        101480.911
    0.03898097381       101490.2729
    0.03923140622       101501.1933
    0.03948183864        101512.924
    0.03973227105        101524.675
    0.03998270346       101535.7053
    0.04023313588       101545.3599
    0.04048356829       101553.0821
     0.0407340007       101558.3767
    0.04098443312       101560.8065
    0.04123486553       101560.0481
    0.04148529795       101555.9668
    0.04173573036       101548.7007
    0.04198616277       101538.7029
    0.04223659519       101526.7637
     0.0424870276       101514.0262
    0.04273746001       101501.8681
    0.04298789243       101491.6878
    0.04323832484       101484.7145
    0.04348875725       101481.8794
    0.04373918967          101483.7
    0.04398962208        101490.195
    0.04424005449       101500.8466
    0.04449048691       101514.6475
    0.04474091932       101530.2341
    0.04499135173       101545.9972
    0.04524178415       101560.3362
    0.04549221656       101571.7758
    0.04574264897       101579.1592
    0.04599308139       101581.8013
     0.0462435138       101579.5914
    0.04649394621       101572.9293
    0.04674437863       101562.6627
    0.04699481104       101549.9606
    0.04724524345       101536.0957
    0.04749567587       101522.3071
    0.04774610828       101509.7391
    0.04799654069       101499.3204
    0.04824697311        101491.685
    0.04849740552       101487.1561
    0.04874783793       101485.7758
    0.04899827035       101487.4418
    0.04924870276       101491.8427
    0.04949913517       101498.6075
    0.04974956759       101507.4115
             0.05       101517.9163
          0.05025       101529.7163
           0.0505       101542.4554
          0.05075       101555.7055
            0.051       101568.8863
          0.05125       101581.2539
           0.0515        101591.976
          0.05175       101600.2441
            0.052       101605.3695
          0.05225       101606.8415
           0.0525       101604.3615
          0.05275       101597.8607
            0.053        101587.531
          0.05325       101573.8807
           0.0535       101557.7626
          0.05375       101540.3432
            0.054       101523.0059
          0.05425       101507.2138
           0.0545       101494.3553
          0.05475       101485.6048
            0.055       101481.7951
          0.05525       101483.3717
           0.0555       101490.2724
          0.05575       101501.9893
            0.056       101517.6658
          0.05625       101536.1841
           0.0565       101556.2248
          0.05675       101576.3392
            0.057       101595.0668
          0.05725       101611.1001
           0.0575       101623.4521
          0.05775       101631.5563
            0.058       101635.2708
          0.05825       101634.8191
           0.0585         101630.73
          0.05875       101623.7653
            0.059       101614.8157
          0.05925       101604.7916
           0.0595       101594.5309
          0.05975       101584.6875
             0.06       101575.7722
          0.06025       101568.1298
           0.0605       101561.9631
          0.06075       101557.3743
            0.061       101554.3874
          0.06125       101552.9547
           0.0615       101552.9728
          0.06175       101554.2904
            0.062       101556.7388
          0.06225       101560.1875
           0.0625       101564.5214
          0.06275       101569.6396
            0.063       101575.4371
          0.06325        101581.777
           0.0635        101588.474
          0.06375       101595.2892
            0.064       101601.9422
          0.06425       101608.1237
           0.0645       101613.5156
          0.06475       101617.7915
            0.065       101620.6639
          0.06525       101621.9163
           0.0655       101621.4598
          0.06575        101619.392
            0.066       101616.0258
          0.06625        101611.883
           0.0665       101607.6584
          0.06675       101604.1583
            0.067       101602.2057
          0.06725       101602.5167
           0.0675       101605.5802
          0.06775       101611.5669
            0.068       101620.2867
          0.06825       101631.1918
           0.0685       101643.4263
          0.06875       101655.9212
            0.069       101667.5172
          0.06925        101677.099
           0.0695       101683.7384
          0.06975       101686.8363
             0.07       101686.2121
          0.07025       101682.1404
           0.0705       101675.2762
          0.07075       101666.5403
            0.071       101656.9904
          0.07125       101647.6898
           0.0715       101639.5819
          0.07175       101633.3992
            0.072       101629.5796
          0.07225       101628.2686
           0.0725       101629.3577
          0.07275       101632.5431
            0.073       101637.3988
          0.07325       101643.4519
           0.0735       101650.2476
          0.07375       101657.3941
            0.074       101664.5946
          0.07425       101671.6787
           0.0745        101678.625
          0.07475       101685.5495
            0.075       101692.6388
          0.07525       101700.0455
           0.0755       101707.7888
          0.07575       101715.6891
            0.076       101723.3476
          0.07625       101730.1766
           0.0765       101735.4856
          0.07675        101738.615
            0.077       101739.0903
          0.07725       101736.7525
           0.0775       101731.8275
          0.07775       101724.9246
    0.07799722222       101717.0425
    0.07824444444       101709.1577
    0.07849166667       101702.3222
    0.07873607955        101697.485
    0.07898049242       101695.1972
     0.0792249053       101695.8022
    0.07946647617       101699.3013
    0.07970804704       101705.4991
     0.0799467759         101713.92
    0.08018550476        101724.155
    0.08042139161       101735.5297
    0.08065727845       101747.6164
    0.08089032329       101759.7337
    0.08112336813       101771.5238
    0.08135357096       101782.4013
    0.08158096643       101792.0232
    0.08180836191       101800.2403
    0.08203295003       101806.7896
    0.08225753816       101811.6934
    0.08247931893       101814.9199
    0.08269832744       101816.5932
    0.08291733596       101816.8718
    0.08313357221       101815.9193
    0.08334980847       101813.9107
    0.08356327246       101811.0695
    0.08377673645       101807.5745
    0.08399020045       101803.6594
    0.08420366444       101799.6017
    0.08441428225       101795.7652
    0.08462490006       101792.4156
    0.08483551786       101789.8598
    0.08504613567       101788.3603
    0.08525382823       101788.0986
    0.08546152079       101789.1271
    0.08566921335       101791.4126
    0.08587393888       101794.7597
     0.0860786644       101798.9792
    0.08628338992        101803.821
    0.08648811545       101809.0473
    0.08668978536       101814.3965
    0.08689145528         101819.85
     0.0870931252       101825.3927
    0.08729479512       101831.0608
    0.08749331395       101836.8013
    0.08769183277        101842.687
     0.0878903516       101848.6026
    0.08808887043       101854.3086
    0.08828413484       101859.3751
    0.08847939926        101863.493
    0.08867466368       101866.2608
    0.08886661854        101867.365
    0.08905857339       101866.7301
    0.08925052824       101864.4437
    0.08944248309       101860.8467
    0.08963101018          101856.6
    0.08981953727       101852.3845
    0.09000806436       101849.0173
    0.09019659145       101847.2673
    0.09038156142       101847.7069
    0.09056653139       101850.6352
    0.09075150136       101856.1383
    0.09093647134       101864.0382
    0.09112144131       101873.9276
    0.09130263638        101885.002
    0.09148383146       101896.8403
    0.09166502653       101908.8374
    0.09184622161       101920.4476
    0.09202741669       101931.2374
    0.09220861176       101940.8959
    0.09238568877       101949.0604
    0.09256276577       101955.8787
    0.09273984278       101961.3396
    0.09291691978       101965.4858
    0.09309399679       101968.3936
    0.09327107379       101970.1605
    0.09344361036       101970.8944
    0.09361614693       101970.7793
     0.0937886835       101969.9562
    0.09396122007       101968.5713
    0.09413375664       101966.7593
    0.09430629321       101964.6252
    0.09447375517       101962.3091
    0.09464121714       101959.7816
     0.0948086791        101957.056
    0.09497614107       101954.1537
    0.09514360303       101951.1287
      0.095311065       101948.0844
    0.09547852696       101945.1806
    0.09564000814       101942.7104
    0.09580148932       101940.7898
     0.0959629705       101939.6467
    0.09612445168       101939.4825
    0.09628593286       101940.4387
    0.09644741404       101942.5667
    0.09660889522       101945.8108
     0.0967703764       101950.0111
    0.09693185758       101954.9266
    0.09709333876       101960.2701
    0.09725481994       101965.7477
    0.09741630112       101971.0988
     0.0975777823       101976.1284
    0.09773926348       101980.7307
    0.09790074466       101984.8964
    0.09806222584       101988.7056
    0.09822370702       101992.3047
     0.0983851882       101995.8766
    0.09854666938       101999.6007
    0.09870815056       102003.6189
    0.09886963174       102008.0115
    0.09903111292       102012.7828
     0.0991925941       102017.8578
    0.09935407528       102023.0946
    0.09951555646       102028.3071
    0.09967703764       102033.2924
    0.09983851882       102037.8595
              0.1       102041.8529
     0.1001497006       102044.9501
      0.100298953        102047.409
     0.1004477585       102049.2262
     0.1005961185       102050.4327
     0.1007435928       102051.0915
     0.1008906269       102051.2994
      0.101037222       102051.1716
     0.1011833795       102050.8315
     0.1013295371       102050.4076
      0.101475257       102050.0265
     0.1016205407        102049.818
     0.1017653894       102049.9054
     0.1019098044       102050.3983
     0.1020542194       102051.3902
     0.1021982007       102052.9421
     0.1023417497       102055.0799
     0.1024848675       102057.7884
     0.1026275556       102061.0121
     0.1027698152        102064.661
     0.1029116476       102068.6239
      0.103053054       102072.7849
     0.1031936138       102077.0235
     0.1033337526       102081.2572
      0.103473472       102085.4043
     0.1036127729       102089.3975
     0.1037516568       102093.1869
     0.1038901249        102096.739
     0.1040281785        102100.032
     0.1041658186       102103.0523
     0.1043030467       102105.7934
      0.104439864        102108.259
     0.1045762715        102110.464
     0.1047122707       102112.4365
     0.1048478627       102114.2168
     0.1049830488       102115.8553
     0.1051178301       102117.4075
     0.1052522078       102118.9269
     0.1053861833       102120.4579
     0.1055197576       102122.0292
     0.1056529319       102123.6523
     0.1057857076       102125.3229
     0.1059180857       102127.0259
     0.1060500675       102128.7411
     0.1061816541       102130.4457
     0.1063128468       102132.1159
     0.1064436466       102133.7257
     0.1065740549        102135.247
     0.1067036846       102136.6472
     0.1068329273       102137.9022
       0.10696217       102138.9876
     0.1070910258       102139.8731
     0.1072194958        102140.536
     0.1073475811       102140.9622
      0.107475283       102141.1545
     0.1076029848       102141.1439
     0.1077303032       102140.9973
     0.1078572392       102140.8304
     0.1079837941       102140.7854
     0.1081103489       102141.0302
     0.1082365225       102141.7407
     0.1083623161        102143.085
     0.1084881098       102145.2126
     0.1086135233       102148.2269
      0.108738558       102152.1793
     0.1088632149       102157.0564
     0.1089874952       102162.7772
     0.1091114001       102169.1955
     0.1092353049       102176.1305
     0.1093588343       102183.3183
     0.1094819894       102190.4909
     0.1096051444       102197.3982
     0.1097279251       102203.7644
     0.1098503326       102209.3734
     0.1099723681       102214.0627
     0.1100944036       102217.7405
      0.110216067       102220.3522
     0.1103373595       102221.9146
     0.1104582821       102222.4869
     0.1105788362       102222.1542
     0.1106990226       102221.0121
     0.1108188427       102219.1551
     0.1109386627       102216.6621
     0.1110581164       102213.6177
     0.1111772047       102210.0975
     0.1112959288       102206.1774
      0.111414653        102201.926
     0.1115330129       102197.4485
     0.1116513729       102192.8381
     0.1117693687        102188.232
     0.1118870014       102183.7681
     0.1120046341       102179.5822
     0.1121219038       102175.8414
     0.1122388115       102172.6921
     0.1123557192       102170.2561
     0.1124722649        102168.644
     0.1125884499       102167.9172
     0.1127046348        102168.096
     0.1128204589        102169.161
      0.112936283       102171.0623
     0.1130517463        102173.721
     0.1131672096       102177.0694
     0.1132823121       102181.0371
     0.1133974146       102185.6062
     0.1135121562       102190.7677
     0.1136268978       102196.5753
     0.1137412787       102203.0678
     0.1138552998       102210.2986
     0.1139693209       102218.3216
     0.1140829824       102227.0953
     0.1141966438       102236.5636
     0.1143099456       102246.5365
     0.1144228888       102256.7771
      0.114535832       102267.0214
     0.1146484167       102276.9047
     0.1147610013       102286.1212
     0.1148732275       102294.3396
     0.1149850962       102301.3326
     0.1150966086       102306.9732
      0.115208121       102311.2596
     0.1153192772       102314.2706
     0.1154300782       102316.2016
     0.1155408792       102317.3183
     0.1156513251       102317.9096
     0.1157614171       102318.2634
     0.1158711561       102318.6212
     0.1159808951        102319.153
     0.1160902813       102319.9334
     0.1161996675       102320.9445
     0.1163087009       102322.0749
     0.1164173825       102323.1497
     0.1165260641       102323.9607
      0.116634394       102324.2911
     0.1167423733       102323.9585
     0.1168500031       102322.8369
      0.116957633       102320.8653
     0.1170649134       102318.0718
     0.1171718455       102314.5565
     0.1172787776       102310.4673
     0.1173853614       102306.0202
      0.117491598       102301.4408
     0.1175978346       102296.9372
      0.117703724       102292.7244
     0.1178096135       102288.9537
     0.1179151557       102285.7523
      0.118020698       102283.1675
      0.118125893       102281.2108
     0.1182307421       102279.8363
     0.1183355911       102278.9648
     0.1184400941       102278.5083
     0.1185442522       102278.3708
     0.1186484103       102278.4683
     0.1187522235       102278.7409
     0.1188560367       102279.1642
     0.1189595051       102279.7514
     0.1190629734       102280.5576
     0.1191660968       102281.6662
     0.1192692202       102283.1889
     0.1193723436        102285.247
      0.119475121       102287.9512
     0.1195778984        102291.417
     0.1196803297       102295.7152
      0.119782761       102300.9076
     0.1198848463       102306.9758
     0.1199869316       102313.8822
     0.1200886708       102321.4842
     0.1201900651       102329.6013
     0.1202914594        102338.035
     0.1203925089       102346.4967
     0.1204932147       102354.7114
     0.1205939204       102362.4353
     0.1206942825       102369.3938
     0.1207946445       102375.4002
     0.1208946628       102380.2745
     0.1209946812       102383.9294
     0.1210943558       102386.3087
     0.1211940304       102387.4379
     0.1212933614       102387.3886
     0.1213926923       102386.2871
     0.1214916795       102384.3041
     0.1215906668       102381.6355
     0.1216893103       102378.4888
     0.1217879538       102375.0586
     0.1218862536       102371.5596
     0.1219845534       102368.1586
     0.1220825095         102365.01
     0.1221804656        102362.217
      0.122278078       102359.8742
     0.1223756904       102358.0278
     0.1224733028       102356.7028
     0.1225705703       102355.8902
     0.1226678378       102355.5337
     0.1227647604       102355.5402
     0.1228616829       102355.7808
     0.1229586055       102356.1018
     0.1230551819       102356.3359
     0.1231517583       102356.3225
     0.1232483347       102355.9205
     0.1233449111       102355.0266
     0.1234411389        102353.597
     0.1235373666       102351.6443
     0.1236335944       102349.2535
     0.1237294722       102346.5867
     0.1238253501       102343.8442
     0.1239212279       102341.2749
     0.1240171057       102339.1469
     0.1241126311       102337.7271
     0.1242081564       102337.2384
     0.1243036818       102337.8605
     0.1243992071       102339.7025
     0.1244943774        102342.776
     0.1245895476        102347.023
     0.1246847178       102352.2966
     0.1247798881       102358.3766
     0.1248747005        102364.962
      0.124969513       102371.7693
     0.1250643254       102378.4889
     0.1251587787        102384.812
      0.125253232       102390.5305
     0.1253476854       102395.4805
     0.1254417782        102399.567
      0.125535871       102402.8158
     0.1256299638       102405.3127
     0.1257236947       102407.2041
     0.1258174256       102408.7002
     0.1259111565       102410.0258
     0.1260048874       102411.4074
     0.1260982536       102413.0444
     0.1261916198       102415.1093
      0.126284986       102417.7192
      0.126377986       102420.9195
     0.1264709861       102424.7182
       0.12656362       102429.0379
     0.1266562539       102433.7808
     0.1267485217       102438.7718
     0.1268407895       102443.8439
     0.1269330572       102448.7959
     0.1270249574        102453.411
     0.1271168576       102457.5319
     0.1272083902       102461.0036
     0.1272999227        102463.748
     0.1273910877       102465.7142
     0.1274822527       102466.9214
     0.1275734176       102467.4221
     0.1276642135       102467.3076
     0.1277550094       102466.6966
     0.1278454362       102465.7256
      0.127935863       102464.5309
     0.1280262898       102463.2491
      0.128116346        102462.011
     0.1282064021       102460.9174
     0.1282964583       102460.0487
     0.1283861424       102459.4568
     0.1284758264       102459.1541
     0.1285655105       102459.1251
     0.1286548209       102459.3243
     0.1287441312       102459.6851
     0.1288334416       102460.1257
      0.128922752       102460.5555
     0.1290116855       102460.8782
     0.1291006191       102461.0022
     0.1291895526       102460.8366
     0.1292781077       102460.3007
     0.1293666628       102459.3223
     0.1294552179       102457.8453
     0.1295433929       102455.8457
     0.1296315679       102453.3131
      0.129719743       102450.2819
     0.1298075363       102446.8294
     0.1298953296       102443.0413
     0.1299831229       102439.0477
     0.1300709163        102435.009
     0.1301583245       102431.1277
     0.1302457328       102427.5898
      0.130333141       102424.6075
     0.1304205493       102422.3863
     0.1305079576       102421.1083
     0.1305949756       102420.9137
     0.1306819937       102421.8812
     0.1307690117       102424.0367
     0.1308560298       102427.3435
     0.1309430478       102431.7081
     0.1310296703       102436.9648
     0.1311162928       102442.9564
     0.1312029153        102449.482
     0.1312891405       102456.2919
     0.1313753657       102463.1926
     0.1314615908       102469.9679
     0.1315474168        102476.395
     0.1316332427       102482.3476
     0.1317190687       102487.7084
     0.1318048947       102492.3999
     0.1318903177       102496.3639
     0.1319757407       102499.6147
     0.1320611638         102502.17
     0.1321465868        102504.069
     0.1322320098        102505.368
     0.1323170241       102506.1315
     0.1324020384       102506.4402
     0.1324870528       102506.3717
     0.1325720671       102506.0082
     0.1326570814       102505.4348
      0.132741681       102504.7418
     0.1328262806       102504.0128
     0.1329108802       102503.3309
     0.1329954798       102502.7736
     0.1330796606       102502.4094
     0.1331638414       102502.2882
     0.1332480222       102502.4463
      0.133332203       102502.9009
     0.1334159607       102503.6443
     0.1334997185        102504.655
     0.1335834763       102505.8919
     0.1336668089       102507.2927
     0.1337501415       102508.8003
     0.1338334741       102510.3495
     0.1339168067       102511.8797
     0.1339997098       102513.3341
     0.1340826128       102514.6864
     0.1341655159       102515.9182
     0.1342484189       102517.0265
      0.134331322       102518.0196
     0.1344142251       102518.9113
     0.1344971281       102519.7151
     0.1345795902       102520.4344
     0.1346620523       102521.0678
     0.1347445144        102521.593
     0.1348269765       102521.9751
     0.1349094385       102522.1675
     0.1349919006        102522.114
     0.1350739121       102521.7578
     0.1351559236       102521.0492
      0.135237935       102519.9596
     0.1353199465       102518.4928
      0.135401958        102516.684
     0.1354839695        102514.609
     0.1355655202       102512.3853
     0.1356470709       102510.1265
     0.1357286217       102507.9736
     0.1358101724        102506.076
     0.1358917231       102504.5807
     0.1359732739       102503.6173
     0.1360548246       102503.2829
     0.1361363753       102503.6281
     0.1362179261       102504.6468
     0.1362989971       102506.2562
     0.1363800681       102508.3471
     0.1364611391       102510.7612
     0.1365422101       102513.3125
     0.1366232812       102515.8094
     0.1367038638       102518.0636
     0.1367844465       102519.9527
     0.1368650291       102521.3884
     0.1369456117       102522.3438
     0.1370261944        102522.857
      0.137106777       102523.0224
     0.1371873597       102522.9766
     0.1372679423       102522.8843
      0.137348525       102522.9207
     0.1374291076       102523.2657
     0.1375096902       102524.0808
     0.1375902729       102525.4877
     0.1376708555       102527.5754
     0.1377514382       102530.3733
     0.1378314941       102533.8203
     0.1379115501       102537.8349
     0.1379916061       102542.2667
      0.138071662       102546.9234
      0.138151718       102551.5857
     0.1382317739       102556.0271
     0.1383118299       102560.0367
     0.1383918859       102563.4432
     0.1384713935       102566.1189
     0.1385509011        102568.049
     0.1386304087       102569.2673
     0.1387099164       102569.8756
      0.138789424        102570.031
     0.1388689316       102569.9266
     0.1389484393         102569.77
      0.139027379       102569.7607
     0.1391063187       102570.0698