# Probe 0 (2.4 2.295 1.5)
#           Probe                 0
#            Time
    1.1999904e-06            101325
  2.639965056e-06            101325
  4.367944597e-06            101325
  6.441505713e-06            101325
   8.92973777e-06            101325
  1.191552707e-05            101325
  1.549838863e-05            101325
  1.979776087e-05            101325
  2.495674128e-05            101325
  3.114713435e-05            101325
  3.857523794e-05            101325
  4.748896225e-05            101325
  5.818543142e-05            101325
  7.102064463e-05            101325
  8.642131685e-05            101325
  0.0001049009832            101325
  0.0001270765827            101325
  0.0001536896689            101325
  0.0001856219625            101325
  0.0002239407148            101325
  0.0002699019884            101325
  0.0003250351347            101325
  0.0003911802278            101325
  0.0004705543394            101325
  0.0005658032734            101325
  0.0006799700095            101325
  0.0008169700928            101325
  0.0009814618316            101325
   0.001179117227            101325
   0.001416111804       101325.0001
   0.001666544217       101325.0009
   0.001916976631        101325.004
   0.002167409044        101325.014
   0.002417841458       101325.0419
   0.002668273871       101325.1099
   0.002918706284         101325.26
   0.003169138698       101325.5629
   0.003419571111       101326.1282
   0.003670003524       101327.1118
   0.003920435938        101328.717
   0.004170868351       101331.1852
   0.004421300765       101334.7709
   0.004671733178       101339.7004
   0.004922165591       101346.1131
   0.005172598005       101353.9913
   0.005423030418       101363.0895
   0.005673462831       101372.8804
   0.005923895245       101382.5414
   0.006174327658       101391.0041
   0.006424760072       101397.0857
   0.006675192485       101399.6969
   0.006925624898       101398.0951
   0.007176057312       101392.1189
   0.007426489725        101382.445
   0.007676922139       101370.3424
   0.007927354552       101357.6398
   0.008177786965       101346.4056
   0.008428219379       101338.5515
   0.008678651792       101335.4814
   0.008929084205       101337.8391
   0.009179516619       101345.6391
   0.009429949032       101358.2382
   0.009680381446        101374.357
   0.009930813859        101392.268
    0.01018124627       101409.9972
    0.01043167869       101425.4588
     0.0106821111       101436.5936
    0.01093254351       101441.6185
    0.01118297593       101439.3896
    0.01143340834       101429.8193
    0.01168384075       101414.0673
    0.01193427317       101394.2371
    0.01218470558       101373.1356
    0.01243513799       101353.8794
    0.01268557041       101339.4549
    0.01293600282       101332.2175
    0.01318643523       101333.5561
    0.01343686765       101343.5272
    0.01368730006       101360.7809
    0.01393773247       101382.8072
    0.01418816489       101406.5754
     0.0144385973       101429.1309
    0.01468902971       101448.1427
    0.01493946213       101462.2439
    0.01518989454       101471.1698
    0.01544032695        101475.671
    0.01569075937       101477.0639
    0.01594119178       101476.8025
    0.01619162419       101476.0048
    0.01644205661       101475.1868
    0.01669248902       101474.2651
    0.01694292143       101472.7141
    0.01719335385       101469.7886
    0.01744378626       101464.8405
    0.01769421867        101457.524
    0.01794465109       101448.0289
     0.0181950835        101437.162
    0.01844551591       101426.2471
    0.01869594833       101416.8715
    0.01894638074       101410.5464
    0.01919681315       101408.3755
    0.01944724557       101410.8103
    0.01969767798       101417.5037
    0.01994811039       101427.4156
    0.02019854281       101438.9974
    0.02044897522       101450.5345
    0.02069940763       101460.6853
    0.02094984005       101468.6819
    0.02120027246       101474.4218
    0.02145070487       101478.3808
    0.02170113729       101481.3842
     0.0219515697       101484.3099
    0.02220200211       101487.8229
    0.02245243453        101491.936
    0.02270286694       101496.0044
    0.02295329935       101498.9872
    0.02320373177        101499.755
    0.02345416418       101497.4719
    0.02370459659        101491.886
    0.02395502901       101483.4534
    0.02420546142       101473.2732
    0.02445589384       101462.9395
    0.02470632625       101454.2729
    0.02495675866       101448.9535
    0.02520719108       101448.0893
    0.02545762349       101452.1017
     0.0257080559       101460.6784
    0.02595848832       101472.9208
    0.02620892073       101487.5434
    0.02645935314       101503.0328
    0.02670978556       101517.8294
    0.02696021797       101530.5456
    0.02721065038       101540.1759
     0.0274610828       101546.1352
    0.02771151521       101548.2294
    0.02796194762       101546.4841
    0.02821238004       101541.1117
    0.02846281245       101532.3765
    0.02871324486       101520.6101
    0.02896367728       101506.2972
    0.02921410969        101490.144
     0.0294645421       101473.1287
    0.02971497452       101456.4507
    0.02996540693       101441.4694
    0.03021583934        101429.573
    0.03046627176       101422.0122
    0.03071670417       101419.8122
    0.03096713658       101423.7011
      0.031217569       101433.9398
    0.03146800141       101450.2984
    0.03171843382        101471.932
    0.03196886624       101497.3752
    0.03221929865       101524.6803
    0.03246973106       101551.6587
    0.03272016348       101576.1204
    0.03297059589       101596.0633
     0.0332210283       101609.8487
    0.03347146072       101616.4236
    0.03372189313       101615.5343
    0.03397232554       101607.7901
    0.03422275796       101594.6483
    0.03447319037       101578.1637
    0.03472362278       101560.5122
     0.0349740552       101543.5677
    0.03522448761        101528.724
    0.03547492002       101516.8589
    0.03572535244       101508.2894
    0.03597578485       101502.7328
    0.03622621726       101499.4836
    0.03647664968       101497.5452
    0.03672708209       101496.0273
     0.0369775145       101494.4065
    0.03722794692       101492.6298
    0.03747837933       101491.0719
    0.03772881174       101490.3816
    0.03797924416       101491.2809
    0.03822967657       101494.3538
    0.03848010898       101499.9294
     0.0387305414       101508.0195
    0.03898097381       101518.2876
    0.03923140622        101530.078
    0.03948183864       101542.5436
    0.03973227105        101554.827
    0.03998270346       101566.1636
    0.04023313588       101575.9414
    0.04048356829       101583.6682
     0.0407340007       101588.9067
    0.04098443312       101591.3167
    0.04123486553        101590.663
    0.04148529795       101586.8552
    0.04173573036       101580.0291
    0.04198616277       101570.6041
    0.04223659519       101559.2967
     0.0424870276       101547.1327
    0.04273746001       101535.3638
    0.04298789243       101525.3173
    0.04323832484       101518.2524
    0.04348875725       101515.2047
    0.04373918967       101516.8565
    0.04398962208       101523.4039
    0.04424005449       101534.4543
    0.04449048691       101549.0385
    0.04474091932       101565.7097
    0.04499135173        101582.713
    0.04524178415       101598.2369
    0.04549221656       101610.6418
    0.04574264897        101618.682
    0.04599308139       101621.6797
     0.0462435138       101619.6233
    0.04649394621       101613.0713
    0.04674437863       101603.0218
    0.04699481104       101590.7199
    0.04724524345       101577.4669
    0.04749567587       101564.4062
    0.04774610828       101552.5456
    0.04799654069       101542.7242
    0.04824697311       101535.5194
    0.04849740552       101531.2234
    0.04874783793       101529.9276
    0.04899827035       101531.5746
    0.04924870276       101535.9342
    0.04949913517       101542.7436
    0.04974956759       101551.7337
             0.05       101562.5644
          0.05025       101574.8276
           0.0505       101588.1585
          0.05075       101602.1132
            0.051       101616.1014
          0.05125       101629.3887
           0.0515       101641.1474
          0.05175        101650.514
            0.052       101656.6695
          0.05225        101658.943
           0.0525       101656.9123
          0.05275       101650.4947
            0.053       101639.9722
          0.05325       101626.0124
           0.0535       101609.6656
          0.05375       101592.2643
            0.054       101575.2776
          0.05425       101560.1522
           0.0545       101548.1757
          0.05475       101540.3771
            0.055       101537.4784
          0.05525       101539.8176
           0.0555       101547.3047
          0.05575       101559.4686
            0.056       101575.5045
          0.05625       101594.3037
           0.0565       101614.5051
          0.05675       101634.6027
            0.057       101653.1182
          0.05725       101668.8057
           0.0575       101680.8211
          0.05775       101688.7774
            0.058       101692.6872
          0.05825       101692.8608
           0.0585       101689.8067
          0.05875       101684.1771
            0.059       101676.6816
          0.05925       101668.0153
           0.0595       101658.8349
          0.05975       101649.7455
             0.06       101641.3025
          0.06025       101634.0189
           0.0605       101628.3482
          0.06075       101624.6397
            0.061       101623.0693
          0.06125       101623.5708
           0.0615       101625.8237
          0.06175       101629.3209
            0.062        101633.523
          0.06225       101638.0217
           0.0625       101642.6382
          0.06275       101647.4211
            0.063       101652.5597
          0.06325       101658.2512
           0.0635       101664.5779
          0.06375       101671.4306
            0.064       101678.4878
          0.06425       101685.2347
           0.0645       101691.0623
          0.06475       101695.3869
            0.065       101697.7908
          0.06525       101698.1453
           0.0655       101696.6652
          0.06575       101693.8761
            0.066       101690.5143
          0.06625       101687.3876
           0.0665       101685.2408
          0.06675       101684.6555
            0.067       101686.0042
          0.06725       101689.4461
           0.0675       101694.9478
          0.06775       101702.3117
            0.068       101711.2003
          0.06825       101721.1583
           0.0685       101731.6425
          0.06875       101742.0598
            0.069       101751.8041
          0.06925       101760.2967
           0.0695       101767.0317
          0.06975       101771.6242
             0.07        101773.855
          0.07025       101773.6883
           0.0705       101771.2609
          0.07075       101766.8588
    0.07099788136       101760.9518
    0.07124366202       101754.0925
     0.0714873598       101746.8966
    0.07173105758       101739.9334
    0.07197267247       101733.8498
    0.07221222228       101729.1339
    0.07245177209       101726.1421
    0.07268925681       101725.1803
    0.07292469425       101726.3737
     0.0731601317       101729.7431
    0.07339352185       101735.1256
    0.07362691201       101742.3089
    0.07386030217       101750.9869
    0.07409162693       101760.7444
    0.07432090457       101771.2513
    0.07455018221       101782.3213
    0.07477741272        101793.617
     0.0750026144       101804.9136
    0.07522580534       101815.9671
    0.07544899628        101826.582
     0.0756701765       101836.3154
    0.07589135671       101844.8585
    0.07611052619         101851.72
    0.07632969568       101856.5713
    0.07654685443       101859.0708
    0.07676202091       101859.1078
    0.07697718738       101856.7349
    0.07719036157       101852.2366
    0.07740353576       101846.0203
    0.07761471767       101838.7362
    0.07782589958       101830.9903
    0.07803508921       101823.5375
    0.07824427883       101816.9382
    0.07845346846       101811.7209
    0.07866064665       101808.2931
    0.07886782483       101806.8155
    0.07907299158       101807.3422
    0.07927815833       101809.7966
    0.07948131364       101813.9925
    0.07968446895       101819.7666
    0.07988561283       101826.8519
     0.0800867567       101835.1183
    0.08028588913       101844.3102
    0.08048502156       101854.3728
    0.08068214256       101865.0673
    0.08087727243       101876.2314
     0.0810724023       101887.7828
    0.08126554106        101899.354
    0.08145867981        101910.739
    0.08164982744        101921.428
    0.08183900448        101931.011
    0.08202818151       101939.1753
    0.08221538795       101945.4851
     0.0824025944       101949.7565
    0.08258783025       101951.8267
    0.08277306609       101951.7525
    0.08295633135       101949.7254
     0.0831395966       101946.0605
    0.08332089126       101941.2441
    0.08350218592       101935.7404
    0.08368348058       101930.0624
    0.08386278299       101924.7637
    0.08404208541       101920.2118
    0.08421939557        101916.767
    0.08439670573         101914.58
    0.08457401589       101913.7611
    0.08475132605       101914.2892
    0.08492659817        101916.025
    0.08510187028       101918.8056
     0.0852771424       101922.4393
    0.08545035249       101926.6812
    0.08562356258       101931.4128
    0.08579677267       101936.5207
    0.08596998276       101941.9291
    0.08614319284       101947.5839
    0.08631426454       101953.3656
    0.08648533623       101959.2911
    0.08665640792       101965.2997
    0.08682747962       101971.3089
    0.08699635808       101977.1373
    0.08716523655       101982.7361
    0.08733411502       101987.9663
     0.0875007714       101992.6338
    0.08766742778       101996.6954
    0.08783408416       102000.0661
    0.08799848843        102002.668
     0.0881628927        102004.545
    0.08832729697       102005.7323
    0.08848941784       102006.2943
    0.08865153872       102006.3365
    0.08881365959       102005.9485
    0.08897346445       102005.2294
    0.08913326932       102004.2585
    0.08929307418        102003.126
    0.08945287904       102001.9424
    0.08961029876       102000.8627
    0.08976771848       102000.0394
    0.08992513819        101999.675
    0.09008255791       101999.9928
    0.09023751794       102001.1911
    0.09039247797       102003.4667
      0.090547438       102006.9759
    0.09070239804       102011.8118
    0.09085481774       102017.8779
    0.09100723745       102025.1664
    0.09115965715       102033.5121
    0.09131207685       102042.6675
    0.09146449656       102052.3166
    0.09161691626       102062.0982
    0.09176661419       102071.4782
    0.09191631211       102080.3119
    0.09206601004       102088.3473
    0.09221570796       102095.4264
    0.09236540588       102101.4955
    0.09251510381       102106.6004
    0.09266186648       102110.7957
    0.09280862915       102114.3712
    0.09295539182       102117.5319
    0.09310215449       102120.4727
    0.09324891716       102123.3448
    0.09339255722       102126.1678
    0.09353619728       102128.9964
    0.09367983734       102131.7368
     0.0938234774       102134.2187
    0.09396711746       102136.2206
    0.09411075752       102137.5094
    0.09425439758       102137.8837
    0.09439453423       102137.2429
    0.09453467087       102135.5727
    0.09467480752       102132.9439
    0.09481494416       102129.5351
     0.0949550808       102125.6154
    0.09509521745       102121.5139
    0.09523146141       102117.6818
    0.09536770537       102114.3113
    0.09550394933       102111.6546
    0.09564019329       102109.8815
    0.09577643725       102109.0613
    0.09591268121       102109.1603
    0.09604892517       102110.0504
    0.09618516913       102111.5316
    0.09632141309       102113.3695
    0.09645765705       102115.3458
    0.09658885493       102117.2334
    0.09672005282        102119.042
    0.09685125071       102120.8056
    0.09698244859       102122.6567
    0.09711364648       102124.8102
    0.09724484437       102127.5326
    0.09737604226        102131.104
    0.09750724014       102135.7736
    0.09763843803        102141.716
    0.09776963592        102148.989
     0.0979008338        102157.504
    0.09803203169       102167.0134
    0.09816322958       102177.1226
    0.09829442747       102187.3248
    0.09842562535       102197.0559
    0.09855682324       102205.7612
    0.09868802113       102212.9621
    0.09881921902       102218.3157
     0.0989504169       102221.6512
    0.09908161479       102222.9832
    0.09921281268       102222.5124
    0.09934401056       102220.6123
    0.09947520845       102217.7972
    0.09960640634       102214.6631
    0.09973760423       102211.8106
    0.09986880211       102209.7636
              0.1       102208.9023
     0.1001246883       102209.3625
     0.1002493766       102211.0767
     0.1003737531       102213.8831
     0.1004978187       102217.4889
     0.1006215742       102221.5131
     0.1007450203       102225.5373
     0.1008681577        102229.163
     0.1009909873       102232.0629
     0.1011135098       102234.0185
     0.1012357261       102234.9416
     0.1013576367       102234.8796
     0.1014792427       102234.0035
     0.1016005446        102232.577
     0.1017215432       102230.9124
     0.1018422393       102229.3243
     0.1019626337       102228.0889
     0.1020827271       102227.4146
     0.1022025203       102227.4282
      0.102322014       102228.1726
      0.102441209       102229.6183
      0.102560106       102231.6846
     0.1026787057       102234.2663
     0.1027970089       102237.2587
     0.1029150164       102240.5765
     0.1030327289       102244.1651
     0.1031504413        102248.013
     0.1032678588         102252.12
     0.1033846891       102256.5055
     0.1035012274       102261.2206
     0.1036174743       102266.3048
     0.1037334307       102271.7831
     0.1038490971        102277.655
     0.1039644743       102283.8859
     0.1040795631        102290.402
     0.1041943642       102297.0901
     0.1043088783       102303.8037
     0.1044231061       102310.3735
     0.1045370484        102316.621
     0.1046507057       102322.3727
      0.104764079       102327.4724
     0.1048771688       102331.7889
     0.1049899759       102335.2214
     0.1051025009       102337.7031
     0.1052147447       102339.2056
     0.1053267078       102339.7437
      0.105438391       102339.3777
     0.1055497951       102338.2131
     0.1056609206       102336.3984
     0.1057717683         102334.12
      0.105882616       102331.5855
     0.1059931859       102329.0297
     0.1061034786       102326.6781
      0.106213495       102324.7344
     0.1063232356       102323.3647
     0.1064327012       102322.6845
     0.1065418924       102322.7511
     0.1066508099       102323.5614
     0.1067597275       102325.0606
     0.1068683714       102327.1418
     0.1069767423       102329.6675
      0.107084841       102332.4869
      0.107192668       102335.4557
     0.1073002241       102338.4541
     0.1074077802       102341.4079
     0.1075150654        102344.272
     0.1076220804       102347.0522
     0.1077288258       102349.7902
     0.1078353023       102352.5528
     0.1079417788       102355.4266
     0.1080479864       102358.4826
     0.1081539258       102361.7843
     0.1082598653       102365.3801
     0.1083655365       102369.2688
     0.1084709402       102373.4207
     0.1085760771       102377.7699
     0.1086809477       102382.2215
     0.1087858184       102386.6765
      0.108890423       102391.0107
      0.108994762       102395.1356
     0.1090988362       102398.9875
     0.1092026463       102402.5319
     0.1093061928        102405.759
     0.1094094766       102408.6743
     0.1095127604         102411.29
     0.1096157814       102413.5914
     0.1097185402       102415.5496
     0.1098210375       102417.1095
     0.1099235349       102418.1947
     0.1100257708       102418.7063
     0.1101277458       102418.5476
     0.1102297209       102417.6329
     0.1103314352       102415.9091
     0.1104328893       102413.3674
      0.110534084       102410.0527
     0.1106352786       102406.0586
     0.1107362138       102401.5562
     0.1108368902       102396.7585
     0.1109373084       102391.9194
     0.1110374692       102387.3104
     0.1111376299       102383.1802
     0.1112375332       102379.7616
     0.1113371796       102377.2163
     0.1114368261       102375.6357
     0.1115362157       102375.0465
     0.1116356053       102375.3947
     0.1117347381       102376.5561
     0.1118338709       102378.3701
     0.1119327469       102380.6338
     0.1120316229       102383.1463
      0.112130242       102385.7165
      0.112228605       102388.2038
     0.1123269681       102390.5307
     0.1124250749       102392.6701
     0.1125231818       102394.6679
     0.1126210325       102396.6131
     0.1127186277       102398.6407
     0.1128162229       102400.9151
     0.1129135626       102403.5936
     0.1130106475       102406.8232
     0.1131077325       102410.7302
     0.1132045626       102415.3775
     0.1133011385       102420.7829
     0.1133977145       102426.9266
     0.1134940363       102433.7081
     0.1135903581       102441.0164
     0.1136864257       102448.6718
     0.1137822399       102456.4966
     0.1138780541       102464.3364
     0.1139736148       102472.0122
     0.1140691755       102479.4118
     0.1141644827       102486.4129
     0.1142597899       102492.9618
     0.1143548437       102498.9982
     0.1144498974       102504.5237
     0.1145446977       102509.5368
     0.1146392452       102514.0751
     0.1147337927       102518.2026
     0.1148280873       102521.9685
     0.1149221299       102525.4363
     0.1150161724       102528.6706
     0.1151099628       102531.7032
     0.1152037533       102534.5597
     0.1152972916       102537.2214
     0.1153905784       102539.6451
     0.1154838653         102541.77
     0.1155769007       102543.4994
     0.1156699361       102544.7322
       0.11576272       102545.3565
      0.115855504       102545.2743
     0.1159480365       102544.4091
     0.1160403182        102542.722
        0.1161326       102540.2106
      0.116224631       102536.9335
     0.1163164119       102532.9948
     0.1164081928       102528.5289
     0.1164997236       102523.7278
      0.116591005       102518.7945
     0.1166822864        102513.928
     0.1167733184       102509.3501
     0.1168641017       102505.2512
      0.116954885       102501.7834
     0.1170454195       102499.0723
     0.1171359541       102497.1794
     0.1172262399       102496.1232
     0.1173165258       102495.8519
     0.1174065629       102496.2564
        0.1174966       102497.1758
     0.1175863884       102498.4204
     0.1176761768       102499.7851
     0.1177657165       102501.0568
     0.1178550081       102502.0487
     0.1179442998       102502.6171
     0.1180333434       102502.6686
     0.1181221396       102502.1736
     0.1182109359       102501.1589
     0.1182994848        102499.712
     0.1183880338       102497.9629
     0.1184763353       102496.0899
     0.1185646369       102494.2884
     0.1186526912       102492.7755
     0.1187407454       102491.7554
     0.1188285523        102491.419
     0.1189163592        102491.921
     0.1190039187       102493.3724
     0.1190914783       102495.8405
     0.1191790378       102499.3411
     0.1192663493       102503.8261
     0.1193536609        102509.226
     0.1194409724       102515.4272
     0.1195280351       102522.2703
     0.1196150979       102529.6217
     0.1197019119       102537.3097
     0.1197887259       102545.2183
     0.1198752911       102553.2039
     0.1199618564       102561.1829
     0.1200481729       102569.0347
     0.1201344894       102576.6889
     0.1202205572       102584.0347
     0.1203066249       102591.0074
     0.1203924439       102597.5032
     0.1204782629       102603.4557
     0.1205640819       102608.7746
     0.1206496515       102613.3553
     0.1207349722       102617.1171
      0.120820293       102620.0006
      0.120905365       102621.9485
     0.1209904371       102622.9463
     0.1210752604       102623.0089
     0.1211600836       102622.2008
     0.1212446582       102620.6384
     0.1213289847       102618.4836
     0.1214133112       102615.9227
     0.1214973897       102613.1771
     0.1215814682       102610.4433
     0.1216652987       102607.9177
     0.1217491292       102605.7493
     0.1218329596       102604.0519
     0.1219165414       102602.8903
     0.1220001231       102602.2643
     0.1220837048       102602.1222
      0.122167037        102602.356
     0.1222503692       102602.8094
     0.1223337015       102603.2884
     0.1224170337       102603.5749
     0.1225001149       102603.4506
     0.1225831961       102602.7082
     0.1226662774       102601.1652
     0.1227493586       102598.6863
     0.1228321873        102595.214
      0.122915016       102590.7517
     0.1229978447       102585.3916
     0.1230804201       102579.3225
     0.1231629955       102572.7603
     0.1232455709       102565.9778
     0.1233278922       102559.2932
     0.1234102135       102552.9892
     0.1234925348       102547.3591
     0.1235746013       102542.6835
     0.1236566678       102539.1724
     0.1237387342       102537.0078
      0.123820545        102536.317
     0.1239023558       102537.1577
     0.1239841666       102539.5346
     0.1240659774       102543.3938
     0.1241477882       102548.6305
     0.1242293409       102555.0754
     0.1243108936       102562.5606
     0.1243924463       102570.8707
     0.1244737402       102579.7321
      0.124555034       102588.9082
     0.1246360689       102598.1024
     0.1247171038       102607.0886
     0.1247981388       102615.6401
      0.124878914       102623.5581
     0.1249596892       102630.7116
     0.1250404644       102636.9902
      0.125120979         102642.33
     0.1252014936        102646.759
     0.1252820082       102650.3245
     0.1253625229       102653.1071
     0.1254427752        102655.211
     0.1255230276        102656.783
       0.12560328       102657.9799
     0.1256835323       102658.9675
     0.1257637847       102659.9398
     0.1258437722       102661.0598
     0.1259237597       102662.4575
     0.1260037472       102664.2244
     0.1260837348       102666.4225
     0.1261634556       102669.0752
     0.1262431765       102672.1888
     0.1263226308       102675.7108
      0.126402085       102679.5681
     0.1264815393       102683.6374
      0.126560726       102687.7487
     0.1266399128       102691.7391
      0.126718832       102695.4139
     0.1267977512       102698.6178
     0.1268764029       102701.2033
     0.1269550546       102703.0853
     0.1270337063       102704.2146
     0.1271120895       102704.5875
     0.1271904728       102704.2464
     0.1272685876       102703.2663
     0.1273467024        102701.745
     0.1274248172       102699.8045
     0.1275026627       102697.5926
     0.1275805082       102695.2504
     0.1276580843       102692.9353
     0.1277356603       102690.7636
     0.1278132364        102688.841
     0.1278905422       102687.2539
      0.127967848       102686.0538
     0.1280451538       102685.2605
     0.1281221884        102684.869
     0.1281992229        102684.846
     0.1282762575       102685.1349
      0.128353292       102685.6486
     0.1284300534        102686.269
     0.1285068148       102686.8592
     0.1285835762       102687.2663
     0.1286603375        102687.336
     0.1287370989       102686.9245
     0.1288135842       102685.9263
     0.1288900694       102684.2813
     0.1289665547       102681.9786
     0.1290430399        102679.063
     0.1291195252       102675.6384
     0.1291957313       102671.8785
     0.1292719374       102667.9724
     0.1293481435       102664.1457
     0.1294243496       102660.6278
     0.1295002745       102657.6422
     0.1295761995       102655.3548
     0.1296521244       102653.9012
     0.1297280493       102653.3651
     0.1298036909       102653.7722
     0.1298793325       102655.0943
     0.1299549741       102657.2592
     0.1300306157        102660.154
     0.1301062573        102663.635
     0.1301816124       102667.5228
     0.1302569675        102671.658
     0.1303323226       102675.8717
     0.1304076777       102680.0089
     0.1304830327       102683.9373
      0.130558098       102687.5434
     0.1306331633       102690.7813
     0.1307082285       102693.6325
     0.1307832938       102696.1239
      0.130858359        102698.325
     0.1309331311       102700.3333
     0.1310079031       102702.2845
     0.1310826751       102704.3127
     0.1311574472       102706.5421
     0.1312319237       102709.0606
     0.1313064002       102711.9358
     0.1313808766       102715.1817
     0.1314553531       102718.7645
     0.1315298296       102722.6076
      0.131604007       102726.5844
     0.1316781844       102730.5793
     0.1317523618       102734.4546
     0.1318265392         102738.08
     0.1319007166       102741.3429
     0.1319745912       102744.1443
     0.1320484658       102746.4377
     0.1321223405       102748.1878
     0.1321962151       102749.3839
     0.1322700897         102750.04
     0.1323436578       102750.1919
     0.1324172259       102749.8923
      0.132490794       102749.1965
     0.1325643621       102748.1607